LAMMPS data file. CGCMM style. atom_style full generated by VMD/TopoTools v1.5 on Wed Aug 17 20:56:51 CEST 2016
 424 atoms
 384 bonds
 576 angles
 768 dihedrals
 192 impropers
 7 atom types
 5 bond types
 7 angle types
 8 dihedral types
 3 improper types
 -0.000001 25.832000  xlo xhi
 -0.000001 25.832000  ylo yhi
 -0.000001 25.832000  zlo zhi

# Pair Coeffs
#
# 1  C1
# 2  C2
# 3  C3
# 4  H1
# 5  O1
# 6  O2
# 7  Zn1

# Bond Coeffs
#
# 1  C1-C2
# 2  C1-O2
# 3  C2-C3
# 4  C3-C3
# 5  C3-H1

# Angle Coeffs
#
# 1  C1-C2-C3
# 2  C2-C1-O2
# 3  C2-C3-C3
# 4  C2-C3-H1
# 5  C3-C2-C3
# 6  C3-C3-H1
# 7  O2-C1-O2

# Dihedral Coeffs
#
# 1  C1-C2-C3-C3
# 2  C1-C2-C3-H1
# 3  C2-C3-C3-C2
# 4  C2-C3-C3-H1
# 5  C3-C2-C3-C3
# 6  C3-C2-C3-H1
# 7  H1-C3-C3-H1
# 8  O2-C1-C2-C3

# Improper Coeffs
#
# 1  C1-C3-C2-C3
# 2  C2-C3-C3-H1
# 3  C2-O2-C1-O2

 Masses

 1 12.011000 # C1
 2 12.011000 # C2
 3 12.011000 # C3
 4 1.008000 # H1
 5 15.999000 # O1
 6 15.999000 # O2
 7 65.382004 # Zn1

 Atoms

1 1 7 1.275000 7.579000 5.337000 5.337000 # Zn1 LIG
2 1 5 -1.500000 6.458000 6.458000 6.458000 # O1 LIG
3 1 6 -0.600000 7.282000 5.634000 3.461000 # O2 LIG
4 1 1 0.475000 6.458000 6.458000 2.875000 # C1 LIG
5 1 2 0.125000 6.458000 6.458000 1.390000 # C2 LIG
6 1 3 -0.150000 7.308000 5.608000 0.695000 # C3 LIG
7 1 4 0.150000 7.876000 5.040000 1.157000 # H1 LIG
8 1 7 1.275000 20.495001 7.579000 5.337000 # Zn1 LIG
9 1 5 -1.500000 19.374001 6.458000 6.458000 # O1 LIG
10 1 6 -0.600000 20.198000 7.282000 3.461000 # O2 LIG
11 1 1 0.475000 19.374001 6.458000 2.875000 # C1 LIG
12 1 2 0.125000 19.374001 6.458000 1.390000 # C2 LIG
13 1 3 -0.150000 20.224001 7.308000 0.695000 # C3 LIG
14 1 4 0.150000 20.792000 7.876000 1.157000 # H1 LIG
15 1 7 1.275000 18.253000 20.495001 5.337000 # Zn1 LIG
16 1 5 -1.500000 19.374001 19.374001 6.458000 # O1 LIG
17 1 6 -0.600000 18.549999 20.198000 3.461000 # O2 LIG
18 1 1 0.475000 19.374001 19.374001 2.875000 # C1 LIG
19 1 2 0.125000 19.374001 19.374001 1.390000 # C2 LIG
20 1 3 -0.150000 18.524000 20.224001 0.695000 # C3 LIG
21 1 4 0.150000 17.955999 20.792000 1.157000 # H1 LIG
22 1 7 1.275000 5.337000 18.253000 5.337000 # Zn1 LIG
23 1 5 -1.500000 6.458000 19.374001 6.458000 # O1 LIG
24 1 6 -0.600000 5.634000 18.549999 3.461000 # O2 LIG
25 1 1 0.475000 6.458000 19.374001 2.875000 # C1 LIG
26 1 2 0.125000 6.458000 19.374001 1.390000 # C2 LIG
27 1 3 -0.150000 5.608000 18.524000 0.695000 # C3 LIG
28 1 4 0.150000 5.040000 17.955999 1.157000 # H1 LIG
29 1 7 1.275000 7.579000 20.495001 20.495001 # Zn1 LIG
30 1 5 -1.500000 6.458000 19.374001 19.374001 # O1 LIG
31 1 6 -0.600000 7.282000 20.198000 22.371000 # O2 LIG
32 1 1 0.475000 6.458000 19.374001 22.957001 # C1 LIG
33 1 2 0.125000 6.458000 19.374001 24.441999 # C2 LIG
34 1 3 -0.150000 7.308000 20.224001 25.136999 # C3 LIG
35 1 4 0.150000 7.876000 20.792000 24.674999 # H1 LIG
36 1 7 1.275000 5.337000 7.579000 20.495001 # Zn1 LIG
37 1 5 -1.500000 6.458000 6.458000 19.374001 # O1 LIG
38 1 6 -0.600000 5.634000 7.282000 22.371000 # O2 LIG
39 1 1 0.475000 6.458000 6.458000 22.957001 # C1 LIG
40 1 2 0.125000 6.458000 6.458000 24.441999 # C2 LIG
41 1 3 -0.150000 5.608000 7.308000 25.136999 # C3 LIG
42 1 4 0.150000 5.040000 7.876000 24.674999 # H1 LIG
43 1 7 1.275000 18.253000 5.337000 20.495001 # Zn1 LIG
44 1 5 -1.500000 19.374001 6.458000 19.374001 # O1 LIG
45 1 6 -0.600000 18.549999 5.634000 22.371000 # O2 LIG
46 1 1 0.475000 19.374001 6.458000 22.957001 # C1 LIG
47 1 2 0.125000 19.374001 6.458000 24.441999 # C2 LIG
48 1 3 -0.150000 18.524000 5.608000 25.136999 # C3 LIG
49 1 4 0.150000 17.955999 5.040000 24.674999 # H1 LIG
50 1 7 1.275000 20.495001 18.253000 20.495001 # Zn1 LIG
51 1 5 -1.500000 19.374001 19.374001 19.374001 # O1 LIG
52 1 6 -0.600000 20.198000 18.549999 22.371000 # O2 LIG
53 1 1 0.475000 19.374001 19.374001 22.957001 # C1 LIG
54 1 2 0.125000 19.374001 19.374001 24.441999 # C2 LIG
55 1 3 -0.150000 20.224001 18.524000 25.136999 # C3 LIG
56 1 4 0.150000 20.792000 17.955999 24.674999 # H1 LIG
57 1 7 1.275000 5.337000 7.579000 5.337000 # Zn1 LIG
58 1 6 -0.600000 3.461000 7.282000 5.634000 # O2 LIG
59 1 1 0.475000 2.875000 6.458000 6.458000 # C1 LIG
60 1 2 0.125000 1.390000 6.458000 6.458000 # C2 LIG
61 1 3 -0.150000 0.695000 7.308000 5.608000 # C3 LIG
62 1 4 0.150000 1.157000 7.876000 5.040000 # H1 LIG
63 1 7 1.275000 18.253000 5.337000 5.337000 # Zn1 LIG
64 1 6 -0.600000 18.549999 3.461000 5.634000 # O2 LIG
65 1 1 0.475000 19.374001 2.875000 6.458000 # C1 LIG
66 1 2 0.125000 19.374001 1.390000 6.458000 # C2 LIG
67 1 3 -0.150000 18.524000 0.695000 5.608000 # C3 LIG
68 1 4 0.150000 17.955999 1.157000 5.040000 # H1 LIG
69 1 7 1.275000 20.495001 18.253000 5.337000 # Zn1 LIG
70 1 6 -0.600000 22.371000 18.549999 5.634000 # O2 LIG
71 1 1 0.475000 22.957001 19.374001 6.458000 # C1 LIG
72 1 2 0.125000 24.441999 19.374001 6.458000 # C2 LIG
73 1 3 -0.150000 25.136999 18.524000 5.608000 # C3 LIG
74 1 4 0.150000 24.674999 17.955999 5.040000 # H1 LIG
75 1 7 1.275000 7.579000 20.495001 5.337000 # Zn1 LIG
76 1 6 -0.600000 7.282000 22.371000 5.634000 # O2 LIG
77 1 1 0.475000 6.458000 22.957001 6.458000 # C1 LIG
78 1 2 0.125000 6.458000 24.441999 6.458000 # C2 LIG
79 1 3 -0.150000 7.308000 25.136999 5.608000 # C3 LIG
80 1 4 0.150000 7.876000 24.674999 5.040000 # H1 LIG
81 1 7 1.275000 5.337000 18.253000 20.495001 # Zn1 LIG
82 1 6 -0.600000 3.461000 18.549999 20.198000 # O2 LIG
83 1 1 0.475000 2.875000 19.374001 19.374001 # C1 LIG
84 1 2 0.125000 1.390000 19.374001 19.374001 # C2 LIG
85 1 3 -0.150000 0.695000 18.524000 20.224001 # C3 LIG
86 1 4 0.150000 1.157000 17.955999 20.792000 # H1 LIG
87 1 7 1.275000 7.579000 5.337000 20.495001 # Zn1 LIG
88 1 6 -0.600000 7.282000 3.461000 20.198000 # O2 LIG
89 1 1 0.475000 6.458000 2.875000 19.374001 # C1 LIG
90 1 2 0.125000 6.458000 1.390000 19.374001 # C2 LIG
91 1 3 -0.150000 7.308000 0.695000 20.224001 # C3 LIG
92 1 4 0.150000 7.876000 1.157000 20.792000 # H1 LIG
93 1 7 1.275000 20.495001 7.579000 20.495001 # Zn1 LIG
94 1 6 -0.600000 22.371000 7.282000 20.198000 # O2 LIG
95 1 1 0.475000 22.957001 6.458000 19.374001 # C1 LIG
96 1 2 0.125000 24.441999 6.458000 19.374001 # C2 LIG
97 1 3 -0.150000 25.136999 7.308000 20.224001 # C3 LIG
98 1 4 0.150000 24.674999 7.876000 20.792000 # H1 LIG
99 1 7 1.275000 18.253000 20.495001 20.495001 # Zn1 LIG
100 1 6 -0.600000 18.549999 22.371000 20.198000 # O2 LIG
101 1 1 0.475000 19.374001 22.957001 19.374001 # C1 LIG
102 1 2 0.125000 19.374001 24.441999 19.374001 # C2 LIG
103 1 3 -0.150000 18.524000 25.136999 20.224001 # C3 LIG
104 1 4 0.150000 17.955999 24.674999 20.792000 # H1 LIG
105 1 7 1.275000 5.337000 5.337000 7.579000 # Zn1 LIG
106 1 6 -0.600000 5.634000 3.461000 7.282000 # O2 LIG
107 1 1 0.475000 6.458000 2.875000 6.458000 # C1 LIG
108 1 2 0.125000 6.458000 1.390000 6.458000 # C2 LIG
109 1 3 -0.150000 5.608000 0.695000 7.308000 # C3 LIG
110 1 4 0.150000 5.040000 1.157000 7.876000 # H1 LIG
111 1 7 1.275000 5.337000 20.495001 18.253000 # Zn1 LIG
112 1 6 -0.600000 5.634000 22.371000 18.549999 # O2 LIG
113 1 1 0.475000 6.458000 22.957001 19.374001 # C1 LIG
114 1 2 0.125000 6.458000 24.441999 19.374001 # C2 LIG
115 1 3 -0.150000 5.608000 25.136999 18.524000 # C3 LIG
116 1 4 0.150000 5.040000 24.674999 17.955999 # H1 LIG
117 1 7 1.275000 5.337000 5.337000 18.253000 # Zn1 LIG
118 1 6 -0.600000 3.461000 5.634000 18.549999 # O2 LIG
119 1 1 0.475000 2.875000 6.458000 19.374001 # C1 LIG
120 1 2 0.125000 1.390000 6.458000 19.374001 # C2 LIG
121 1 3 -0.150000 0.695000 5.608000 18.524000 # C3 LIG
122 1 4 0.150000 1.157000 5.040000 17.955999 # H1 LIG
123 1 7 1.275000 20.495001 5.337000 18.253000 # Zn1 LIG
124 1 6 -0.600000 20.198000 3.461000 18.549999 # O2 LIG
125 1 1 0.475000 19.374001 2.875000 19.374001 # C1 LIG
126 1 2 0.125000 19.374001 1.390000 19.374001 # C2 LIG
127 1 3 -0.150000 20.224001 0.695000 18.524000 # C3 LIG
128 1 4 0.150000 20.792000 1.157000 17.955999 # H1 LIG
129 1 7 1.275000 20.495001 20.495001 18.253000 # Zn1 LIG
130 1 6 -0.600000 22.371000 20.198000 18.549999 # O2 LIG
131 1 1 0.475000 22.957001 19.374001 19.374001 # C1 LIG
132 1 2 0.125000 24.441999 19.374001 19.374001 # C2 LIG
133 1 3 -0.150000 25.136999 20.224001 18.524000 # C3 LIG
134 1 4 0.150000 24.674999 20.792000 17.955999 # H1 LIG
135 1 7 1.275000 20.495001 20.495001 7.579000 # Zn1 LIG
136 1 6 -0.600000 20.198000 22.371000 7.282000 # O2 LIG
137 1 1 0.475000 19.374001 22.957001 6.458000 # C1 LIG
138 1 2 0.125000 19.374001 24.441999 6.458000 # C2 LIG
139 1 3 -0.150000 20.224001 25.136999 7.308000 # C3 LIG
140 1 4 0.150000 20.792000 24.674999 7.876000 # H1 LIG
141 1 7 1.275000 5.337000 20.495001 7.579000 # Zn1 LIG
142 1 6 -0.600000 3.461000 20.198000 7.282000 # O2 LIG
143 1 1 0.475000 2.875000 19.374001 6.458000 # C1 LIG
144 1 2 0.125000 1.390000 19.374001 6.458000 # C2 LIG
145 1 3 -0.150000 0.695000 20.224001 7.308000 # C3 LIG
146 1 4 0.150000 1.157000 20.792000 7.876000 # H1 LIG
147 1 7 1.275000 20.495001 5.337000 7.579000 # Zn1 LIG
148 1 6 -0.600000 22.371000 5.634000 7.282000 # O2 LIG
149 1 1 0.475000 22.957001 6.458000 6.458000 # C1 LIG
150 1 2 0.125000 24.441999 6.458000 6.458000 # C2 LIG
151 1 3 -0.150000 25.136999 5.608000 7.308000 # C3 LIG
152 1 4 0.150000 24.674999 5.040000 7.876000 # H1 LIG
153 1 6 -0.600000 18.549999 20.198000 22.371000 # O2 LIG
154 1 3 -0.150000 18.524000 20.224001 25.136999 # C3 LIG
155 1 4 0.150000 17.955999 20.792000 24.674999 # H1 LIG
156 1 6 -0.600000 5.634000 18.549999 22.371000 # O2 LIG
157 1 3 -0.150000 5.608000 18.524000 25.136999 # C3 LIG
158 1 4 0.150000 5.040000 17.955999 24.674999 # H1 LIG
159 1 6 -0.600000 7.282000 5.634000 22.371000 # O2 LIG
160 1 3 -0.150000 7.308000 5.608000 25.136999 # C3 LIG
161 1 4 0.150000 7.876000 5.040000 24.674999 # H1 LIG
162 1 6 -0.600000 20.198000 7.282000 22.371000 # O2 LIG
163 1 3 -0.150000 20.224001 7.308000 25.136999 # C3 LIG
164 1 4 0.150000 20.792000 7.876000 24.674999 # H1 LIG
165 1 6 -0.600000 18.549999 5.634000 3.461000 # O2 LIG
166 1 3 -0.150000 18.524000 5.608000 0.695000 # C3 LIG
167 1 4 0.150000 17.955999 5.040000 1.157000 # H1 LIG
168 1 6 -0.600000 20.198000 18.549999 3.461000 # O2 LIG
169 1 3 -0.150000 20.224001 18.524000 0.695000 # C3 LIG
170 1 4 0.150000 20.792000 17.955999 1.157000 # H1 LIG
171 1 6 -0.600000 7.282000 20.198000 3.461000 # O2 LIG
172 1 3 -0.150000 7.308000 20.224001 0.695000 # C3 LIG
173 1 4 0.150000 7.876000 20.792000 1.157000 # H1 LIG
174 1 6 -0.600000 5.634000 7.282000 3.461000 # O2 LIG
175 1 3 -0.150000 5.608000 7.308000 0.695000 # C3 LIG
176 1 4 0.150000 5.040000 7.876000 1.157000 # H1 LIG
177 1 6 -0.600000 22.371000 18.549999 20.198000 # O2 LIG
178 1 3 -0.150000 25.136999 18.524000 20.224001 # C3 LIG
179 1 4 0.150000 24.674999 17.955999 20.792000 # H1 LIG
180 1 6 -0.600000 7.282000 22.371000 20.198000 # O2 LIG
181 1 3 -0.150000 7.308000 25.136999 20.224001 # C3 LIG
182 1 4 0.150000 7.876000 24.674999 20.792000 # H1 LIG
183 1 6 -0.600000 3.461000 7.282000 20.198000 # O2 LIG
184 1 3 -0.150000 0.695000 7.308000 20.224001 # C3 LIG
185 1 4 0.150000 1.157000 7.876000 20.792000 # H1 LIG
186 1 6 -0.600000 18.549999 3.461000 20.198000 # O2 LIG
187 1 3 -0.150000 18.524000 0.695000 20.224001 # C3 LIG
188 1 4 0.150000 17.955999 1.157000 20.792000 # H1 LIG
189 1 6 -0.600000 22.371000 7.282000 5.634000 # O2 LIG
190 1 3 -0.150000 25.136999 7.308000 5.608000 # C3 LIG
191 1 4 0.150000 24.674999 7.876000 5.040000 # H1 LIG
192 1 6 -0.600000 18.549999 22.371000 5.634000 # O2 LIG
193 1 3 -0.150000 18.524000 25.136999 5.608000 # C3 LIG
194 1 4 0.150000 17.955999 24.674999 5.040000 # H1 LIG
195 1 6 -0.600000 3.461000 18.549999 5.634000 # O2 LIG
196 1 3 -0.150000 0.695000 18.524000 5.608000 # C3 LIG
197 1 4 0.150000 1.157000 17.955999 5.040000 # H1 LIG
198 1 6 -0.600000 7.282000 3.461000 5.634000 # O2 LIG
199 1 3 -0.150000 7.308000 0.695000 5.608000 # C3 LIG
200 1 4 0.150000 7.876000 1.157000 5.040000 # H1 LIG
201 1 6 -0.600000 20.198000 22.371000 18.549999 # O2 LIG
202 1 3 -0.150000 20.224001 25.136999 18.524000 # C3 LIG
203 1 4 0.150000 20.792000 24.674999 17.955999 # H1 LIG
204 1 6 -0.600000 20.198000 3.461000 7.282000 # O2 LIG
205 1 3 -0.150000 20.224001 0.695000 7.308000 # C3 LIG
206 1 4 0.150000 20.792000 1.157000 7.876000 # H1 LIG
207 1 6 -0.600000 22.371000 20.198000 7.282000 # O2 LIG
208 1 3 -0.150000 25.136999 20.224001 7.308000 # C3 LIG
209 1 4 0.150000 24.674999 20.792000 7.876000 # H1 LIG
210 1 6 -0.600000 5.634000 22.371000 7.282000 # O2 LIG
211 1 3 -0.150000 5.608000 25.136999 7.308000 # C3 LIG
212 1 4 0.150000 5.040000 24.674999 7.876000 # H1 LIG
213 1 6 -0.600000 3.461000 5.634000 7.282000 # O2 LIG
214 1 3 -0.150000 0.695000 5.608000 7.308000 # C3 LIG
215 1 4 0.150000 1.157000 5.040000 7.876000 # H1 LIG
216 1 6 -0.600000 5.634000 3.461000 18.549999 # O2 LIG
217 1 3 -0.150000 5.608000 0.695000 18.524000 # C3 LIG
218 1 4 0.150000 5.040000 1.157000 17.955999 # H1 LIG
219 1 6 -0.600000 22.371000 5.634000 18.549999 # O2 LIG
220 1 3 -0.150000 25.136999 5.608000 18.524000 # C3 LIG
221 1 4 0.150000 24.674999 5.040000 17.955999 # H1 LIG
222 1 6 -0.600000 3.461000 20.198000 18.549999 # O2 LIG
223 1 3 -0.150000 0.695000 20.224001 18.524000 # C3 LIG
224 1 4 0.150000 1.157000 20.792000 17.955999 # H1 LIG
225 1 7 1.275000 7.579000 18.253000 18.253000 # Zn1 LIG
226 1 6 -0.600000 7.282000 18.549999 16.377001 # O2 LIG
227 1 1 0.475000 6.458000 19.374001 15.791000 # C1 LIG
228 1 2 0.125000 6.458000 19.374001 14.306000 # C2 LIG
229 1 3 -0.150000 7.308000 18.524000 13.611000 # C3 LIG
230 1 4 0.150000 7.876000 17.955999 14.073000 # H1 LIG
231 1 6 -0.600000 20.198000 20.198000 16.377001 # O2 LIG
232 1 1 0.475000 19.374001 19.374001 15.791000 # C1 LIG
233 1 2 0.125000 19.374001 19.374001 14.306000 # C2 LIG
234 1 3 -0.150000 20.224001 20.224001 13.611000 # C3 LIG
235 1 4 0.150000 20.792000 20.792000 14.073000 # H1 LIG
236 1 7 1.275000 18.253000 7.579000 18.253000 # Zn1 LIG
237 1 6 -0.600000 18.549999 7.282000 16.377001 # O2 LIG
238 1 1 0.475000 19.374001 6.458000 15.791000 # C1 LIG
239 1 2 0.125000 19.374001 6.458000 14.306000 # C2 LIG
240 1 3 -0.150000 18.524000 7.308000 13.611000 # C3 LIG
241 1 4 0.150000 17.955999 7.876000 14.073000 # H1 LIG
242 1 6 -0.600000 5.634000 5.634000 16.377001 # O2 LIG
243 1 1 0.475000 6.458000 6.458000 15.791000 # C1 LIG
244 1 2 0.125000 6.458000 6.458000 14.306000 # C2 LIG
245 1 3 -0.150000 5.608000 5.608000 13.611000 # C3 LIG
246 1 4 0.150000 5.040000 5.040000 14.073000 # H1 LIG
247 1 7 1.275000 7.579000 7.579000 7.579000 # Zn1 LIG
248 1 6 -0.600000 7.282000 7.282000 9.455000 # O2 LIG
249 1 1 0.475000 6.458000 6.458000 10.041000 # C1 LIG
250 1 2 0.125000 6.458000 6.458000 11.526000 # C2 LIG
251 1 3 -0.150000 7.308000 7.308000 12.221000 # C3 LIG
252 1 4 0.150000 7.876000 7.876000 11.759000 # H1 LIG
253 1 6 -0.600000 5.634000 20.198000 9.455000 # O2 LIG
254 1 1 0.475000 6.458000 19.374001 10.041000 # C1 LIG
255 1 2 0.125000 6.458000 19.374001 11.526000 # C2 LIG
256 1 3 -0.150000 5.608000 20.224001 12.221000 # C3 LIG
257 1 4 0.150000 5.040000 20.792000 11.759000 # H1 LIG
258 1 7 1.275000 18.253000 18.253000 7.579000 # Zn1 LIG
259 1 6 -0.600000 18.549999 18.549999 9.455000 # O2 LIG
260 1 1 0.475000 19.374001 19.374001 10.041000 # C1 LIG
261 1 2 0.125000 19.374001 19.374001 11.526000 # C2 LIG
262 1 3 -0.150000 18.524000 18.524000 12.221000 # C3 LIG
263 1 4 0.150000 17.955999 17.955999 11.759000 # H1 LIG
264 1 6 -0.600000 20.198000 5.634000 9.455000 # O2 LIG
265 1 1 0.475000 19.374001 6.458000 10.041000 # C1 LIG
266 1 2 0.125000 19.374001 6.458000 11.526000 # C2 LIG
267 1 3 -0.150000 20.224001 5.608000 12.221000 # C3 LIG
268 1 4 0.150000 20.792000 5.040000 11.759000 # H1 LIG
269 1 7 1.275000 18.253000 18.253000 18.253000 # Zn1 LIG
270 1 6 -0.600000 18.549999 16.377001 18.549999 # O2 LIG
271 1 1 0.475000 19.374001 15.791000 19.374001 # C1 LIG
272 1 2 0.125000 19.374001 14.306000 19.374001 # C2 LIG
273 1 3 -0.150000 18.524000 13.611000 18.524000 # C3 LIG
274 1 4 0.150000 17.955999 14.073000 17.955999 # H1 LIG
275 1 7 1.275000 7.579000 7.579000 18.253000 # Zn1 LIG
276 1 6 -0.600000 7.282000 9.455000 18.549999 # O2 LIG
277 1 1 0.475000 6.458000 10.041000 19.374001 # C1 LIG
278 1 2 0.125000 6.458000 11.526000 19.374001 # C2 LIG
279 1 3 -0.150000 7.308000 12.221000 18.524000 # C3 LIG
280 1 4 0.150000 7.876000 11.759000 17.955999 # H1 LIG
281 1 7 1.275000 7.579000 18.253000 7.579000 # Zn1 LIG
282 1 6 -0.600000 7.282000 16.377001 7.282000 # O2 LIG
283 1 1 0.475000 6.458000 15.791000 6.458000 # C1 LIG
284 1 2 0.125000 6.458000 14.306000 6.458000 # C2 LIG
285 1 3 -0.150000 7.308000 13.611000 7.308000 # C3 LIG
286 1 4 0.150000 7.876000 14.073000 7.876000 # H1 LIG
287 1 7 1.275000 18.253000 7.579000 7.579000 # Zn1 LIG
288 1 6 -0.600000 18.549999 9.455000 7.282000 # O2 LIG
289 1 1 0.475000 19.374001 10.041000 6.458000 # C1 LIG
290 1 2 0.125000 19.374001 11.526000 6.458000 # C2 LIG
291 1 3 -0.150000 18.524000 12.221000 7.308000 # C3 LIG
292 1 4 0.150000 17.955999 11.759000 7.876000 # H1 LIG
293 1 6 -0.600000 5.634000 16.377001 20.198000 # O2 LIG
294 1 1 0.475000 6.458000 15.791000 19.374001 # C1 LIG
295 1 2 0.125000 6.458000 14.306000 19.374001 # C2 LIG
296 1 3 -0.150000 5.608000 13.611000 20.224001 # C3 LIG
297 1 4 0.150000 5.040000 14.073000 20.792000 # H1 LIG
298 1 6 -0.600000 5.634000 9.455000 5.634000 # O2 LIG
299 1 1 0.475000 6.458000 10.041000 6.458000 # C1 LIG
300 1 2 0.125000 6.458000 11.526000 6.458000 # C2 LIG
301 1 3 -0.150000 5.608000 12.221000 5.608000 # C3 LIG
302 1 4 0.150000 5.040000 11.759000 5.040000 # H1 LIG
303 1 6 -0.600000 20.198000 16.377001 5.634000 # O2 LIG
304 1 1 0.475000 19.374001 15.791000 6.458000 # C1 LIG
305 1 2 0.125000 19.374001 14.306000 6.458000 # C2 LIG
306 1 3 -0.150000 20.224001 13.611000 5.608000 # C3 LIG
307 1 4 0.150000 20.792000 14.073000 5.040000 # H1 LIG
308 1 6 -0.600000 20.198000 9.455000 20.198000 # O2 LIG
309 1 1 0.475000 19.374001 10.041000 19.374001 # C1 LIG
310 1 2 0.125000 19.374001 11.526000 19.374001 # C2 LIG
311 1 3 -0.150000 20.224001 12.221000 20.224001 # C3 LIG
312 1 4 0.150000 20.792000 11.759000 20.792000 # H1 LIG
313 1 6 -0.600000 18.549999 7.282000 9.455000 # O2 LIG
314 1 3 -0.150000 18.524000 7.308000 12.221000 # C3 LIG
315 1 4 0.150000 17.955999 7.876000 11.759000 # H1 LIG
316 1 6 -0.600000 5.634000 5.634000 9.455000 # O2 LIG
317 1 3 -0.150000 5.608000 5.608000 12.221000 # C3 LIG
318 1 4 0.150000 5.040000 5.040000 11.759000 # H1 LIG
319 1 6 -0.600000 7.282000 18.549999 9.455000 # O2 LIG
320 1 3 -0.150000 7.308000 18.524000 12.221000 # C3 LIG
321 1 4 0.150000 7.876000 17.955999 11.759000 # H1 LIG
322 1 6 -0.600000 20.198000 20.198000 9.455000 # O2 LIG
323 1 3 -0.150000 20.224001 20.224001 12.221000 # C3 LIG
324 1 4 0.150000 20.792000 20.792000 11.759000 # H1 LIG
325 1 6 -0.600000 18.549999 18.549999 16.377001 # O2 LIG
326 1 3 -0.150000 18.524000 18.524000 13.611000 # C3 LIG
327 1 4 0.150000 17.955999 17.955999 14.073000 # H1 LIG
328 1 6 -0.600000 20.198000 5.634000 16.377001 # O2 LIG
329 1 3 -0.150000 20.224001 5.608000 13.611000 # C3 LIG
330 1 4 0.150000 20.792000 5.040000 14.073000 # H1 LIG
331 1 6 -0.600000 7.282000 7.282000 16.377001 # O2 LIG
332 1 3 -0.150000 7.308000 7.308000 13.611000 # C3 LIG
333 1 4 0.150000 7.876000 7.876000 14.073000 # H1 LIG
334 1 6 -0.600000 5.634000 20.198000 16.377001 # O2 LIG
335 1 3 -0.150000 5.608000 20.224001 13.611000 # C3 LIG
336 1 4 0.150000 5.040000 20.792000 14.073000 # H1 LIG
337 1 6 -0.600000 7.282000 9.455000 7.282000 # O2 LIG
338 1 3 -0.150000 7.308000 12.221000 7.308000 # C3 LIG
339 1 4 0.150000 7.876000 11.759000 7.876000 # H1 LIG
340 1 6 -0.600000 18.549999 16.377001 7.282000 # O2 LIG
341 1 3 -0.150000 18.524000 13.611000 7.308000 # C3 LIG
342 1 4 0.150000 17.955999 14.073000 7.876000 # H1 LIG
343 1 6 -0.600000 18.549999 9.455000 18.549999 # O2 LIG
344 1 3 -0.150000 18.524000 12.221000 18.524000 # C3 LIG
345 1 4 0.150000 17.955999 11.759000 17.955999 # H1 LIG
346 1 6 -0.600000 7.282000 16.377001 18.549999 # O2 LIG
347 1 3 -0.150000 7.308000 13.611000 18.524000 # C3 LIG
348 1 4 0.150000 7.876000 14.073000 17.955999 # H1 LIG
349 1 6 -0.600000 20.198000 9.455000 5.634000 # O2 LIG
350 1 3 -0.150000 20.224001 12.221000 5.608000 # C3 LIG
351 1 4 0.150000 20.792000 11.759000 5.040000 # H1 LIG
352 1 6 -0.600000 20.198000 16.377001 20.198000 # O2 LIG
353 1 3 -0.150000 20.224001 13.611000 20.224001 # C3 LIG
354 1 4 0.150000 20.792000 14.073000 20.792000 # H1 LIG
355 1 6 -0.600000 5.634000 9.455000 20.198000 # O2 LIG
356 1 3 -0.150000 5.608000 12.221000 20.224001 # C3 LIG
357 1 4 0.150000 5.040000 11.759000 20.792000 # H1 LIG
358 1 6 -0.600000 5.634000 16.377001 5.634000 # O2 LIG
359 1 3 -0.150000 5.608000 13.611000 5.608000 # C3 LIG
360 1 4 0.150000 5.040000 14.073000 5.040000 # H1 LIG
361 1 6 -0.600000 16.377001 7.282000 18.549999 # O2 LIG
362 1 1 0.475000 15.791000 6.458000 19.374001 # C1 LIG
363 1 2 0.125000 14.306000 6.458000 19.374001 # C2 LIG
364 1 3 -0.150000 13.611000 7.308000 18.524000 # C3 LIG
365 1 4 0.150000 14.073000 7.876000 17.955999 # H1 LIG
366 1 6 -0.600000 9.455000 18.549999 18.549999 # O2 LIG
367 1 1 0.475000 10.041000 19.374001 19.374001 # C1 LIG
368 1 2 0.125000 11.526000 19.374001 19.374001 # C2 LIG
369 1 3 -0.150000 12.221000 18.524000 18.524000 # C3 LIG
370 1 4 0.150000 11.759000 17.955999 17.955999 # H1 LIG
371 1 6 -0.600000 16.377001 18.549999 7.282000 # O2 LIG
372 1 1 0.475000 15.791000 19.374001 6.458000 # C1 LIG
373 1 2 0.125000 14.306000 19.374001 6.458000 # C2 LIG
374 1 3 -0.150000 13.611000 18.524000 7.308000 # C3 LIG
375 1 4 0.150000 14.073000 17.955999 7.876000 # H1 LIG
376 1 6 -0.600000 9.455000 7.282000 7.282000 # O2 LIG
377 1 1 0.475000 10.041000 6.458000 6.458000 # C1 LIG
378 1 2 0.125000 11.526000 6.458000 6.458000 # C2 LIG
379 1 3 -0.150000 12.221000 7.308000 7.308000 # C3 LIG
380 1 4 0.150000 11.759000 7.876000 7.876000 # H1 LIG
381 1 6 -0.600000 16.377001 5.634000 5.634000 # O2 LIG
382 1 1 0.475000 15.791000 6.458000 6.458000 # C1 LIG
383 1 2 0.125000 14.306000 6.458000 6.458000 # C2 LIG
384 1 3 -0.150000 13.611000 5.608000 5.608000 # C3 LIG
385 1 4 0.150000 14.073000 5.040000 5.040000 # H1 LIG
386 1 6 -0.600000 9.455000 20.198000 5.634000 # O2 LIG
387 1 1 0.475000 10.041000 19.374001 6.458000 # C1 LIG
388 1 2 0.125000 11.526000 19.374001 6.458000 # C2 LIG
389 1 3 -0.150000 12.221000 20.224001 5.608000 # C3 LIG
390 1 4 0.150000 11.759000 20.792000 5.040000 # H1 LIG
391 1 6 -0.600000 16.377001 20.198000 20.198000 # O2 LIG
392 1 1 0.475000 15.791000 19.374001 19.374001 # C1 LIG
393 1 2 0.125000 14.306000 19.374001 19.374001 # C2 LIG
394 1 3 -0.150000 13.611000 20.224001 20.224001 # C3 LIG
395 1 4 0.150000 14.073000 20.792000 20.792000 # H1 LIG
396 1 6 -0.600000 9.455000 5.634000 20.198000 # O2 LIG
397 1 1 0.475000 10.041000 6.458000 19.374001 # C1 LIG
398 1 2 0.125000 11.526000 6.458000 19.374001 # C2 LIG
399 1 3 -0.150000 12.221000 5.608000 20.224001 # C3 LIG
400 1 4 0.150000 11.759000 5.040000 20.792000 # H1 LIG
401 1 6 -0.600000 9.455000 18.549999 7.282000 # O2 LIG
402 1 3 -0.150000 12.221000 18.524000 7.308000 # C3 LIG
403 1 4 0.150000 11.759000 17.955999 7.876000 # H1 LIG
404 1 6 -0.600000 16.377001 7.282000 7.282000 # O2 LIG
405 1 3 -0.150000 13.611000 7.308000 7.308000 # C3 LIG
406 1 4 0.150000 14.073000 7.876000 7.876000 # H1 LIG
407 1 6 -0.600000 9.455000 7.282000 18.549999 # O2 LIG
408 1 3 -0.150000 12.221000 7.308000 18.524000 # C3 LIG
409 1 4 0.150000 11.759000 7.876000 17.955999 # H1 LIG
410 1 6 -0.600000 16.377001 18.549999 18.549999 # O2 LIG
411 1 3 -0.150000 13.611000 18.524000 18.524000 # C3 LIG
412 1 4 0.150000 14.073000 17.955999 17.955999 # H1 LIG
413 1 6 -0.600000 9.455000 20.198000 20.198000 # O2 LIG
414 1 3 -0.150000 12.221000 20.224001 20.224001 # C3 LIG
415 1 4 0.150000 11.759000 20.792000 20.792000 # H1 LIG
416 1 6 -0.600000 16.377001 5.634000 20.198000 # O2 LIG
417 1 3 -0.150000 13.611000 5.608000 20.224001 # C3 LIG
418 1 4 0.150000 14.073000 5.040000 20.792000 # H1 LIG
419 1 6 -0.600000 9.455000 5.634000 5.634000 # O2 LIG
420 1 3 -0.150000 12.221000 5.608000 5.608000 # C3 LIG
421 1 4 0.150000 11.759000 5.040000 5.040000 # H1 LIG
422 1 6 -0.600000 16.377001 20.198000 5.634000 # O2 LIG
423 1 3 -0.150000 13.611000 20.224001 5.608000 # C3 LIG
424 1 4 0.150000 14.073000 20.792000 5.040000 # H1 LIG

 Bonds

1 2 3 4
2 1 4 5
3 2 4 174
4 3 5 6
5 3 5 175
6 5 6 7
7 4 6 160
8 2 10 11
9 1 11 12
10 2 11 165
11 3 12 13
12 3 12 166
13 5 13 14
14 4 13 163
15 2 17 18
16 1 18 19
17 2 18 168
18 3 19 20
19 3 19 169
20 5 20 21
21 4 20 154
22 2 24 25
23 1 25 26
24 2 25 171
25 3 26 172
26 3 26 27
27 5 27 28
28 4 27 157
29 2 31 32
30 1 32 33
31 2 32 156
32 3 33 34
33 3 33 157
34 5 34 35
35 4 34 172
36 2 38 39
37 2 39 159
38 1 39 40
39 3 40 160
40 3 40 41
41 5 41 42
42 4 41 175
43 2 45 46
44 2 46 162
45 1 46 47
46 3 47 163
47 3 47 48
48 5 48 49
49 4 48 166
50 2 52 53
51 1 53 54
52 2 53 153
53 3 54 154
54 3 54 55
55 5 55 56
56 4 55 169
57 2 58 59
58 2 59 213
59 1 59 60
60 3 60 61
61 3 60 214
62 5 61 62
63 4 61 190
64 2 64 65
65 2 65 204
66 1 65 66
67 3 66 205
68 3 66 67
69 5 67 68
70 4 67 193
71 2 70 71
72 1 71 72
73 2 71 207
74 3 72 208
75 3 72 73
76 5 73 74
77 4 73 196
78 2 76 77
79 1 77 78
80 2 77 210
81 3 78 79
82 3 78 211
83 5 79 80
84 4 79 199
85 2 82 83
86 2 83 222
87 1 83 84
88 3 84 223
89 3 84 85
90 5 85 86
91 4 85 178
92 2 88 89
93 2 89 216
94 1 89 90
95 3 90 217
96 3 90 91
97 5 91 92
98 4 91 181
99 2 94 95
100 2 95 219
101 1 95 96
102 3 96 220
103 3 96 97
104 5 97 98
105 4 97 184
106 2 100 101
107 2 101 201
108 1 101 102
109 3 102 202
110 3 102 103
111 5 103 104
112 4 103 187
113 2 106 107
114 2 107 198
115 1 107 108
116 3 108 199
117 3 108 109
118 5 109 110
119 4 109 211
120 2 112 113
121 2 113 180
122 1 113 114
123 3 114 115
124 3 114 181
125 5 115 116
126 4 115 217
127 2 118 119
128 2 119 183
129 1 119 120
130 3 120 121
131 3 120 184
132 5 121 122
133 4 121 220
134 2 124 125
135 2 125 186
136 1 125 126
137 3 126 127
138 3 126 187
139 5 127 128
140 4 127 202
141 2 130 131
142 1 131 132
143 2 131 177
144 3 132 133
145 3 132 178
146 5 133 134
147 4 133 223
148 2 136 137
149 1 137 138
150 2 137 192
151 3 138 139
152 3 138 193
153 5 139 140
154 4 139 205
155 2 142 143
156 1 143 144
157 2 143 195
158 3 144 145
159 3 144 196
160 5 145 146
161 4 145 208
162 2 148 149
163 1 149 150
164 2 149 189
165 3 150 190
166 3 150 151
167 5 151 152
168 4 151 214
169 5 154 155
170 5 157 158
171 5 160 161
172 5 163 164
173 5 166 167
174 5 169 170
175 5 172 173
176 5 175 176
177 5 178 179
178 5 181 182
179 5 184 185
180 5 187 188
181 5 190 191
182 5 193 194
183 5 196 197
184 5 199 200
185 5 202 203
186 5 205 206
187 5 208 209
188 5 211 212
189 5 214 215
190 5 217 218
191 5 220 221
192 5 223 224
193 2 226 227
194 1 227 228
195 2 227 334
196 3 228 335
197 3 228 229
198 4 229 320
199 5 229 230
200 2 231 232
201 1 232 233
202 2 232 325
203 3 233 234
204 3 233 326
205 4 234 323
206 5 234 235
207 2 237 238
208 1 238 239
209 2 238 328
210 3 239 240
211 3 239 329
212 4 240 314
213 5 240 241
214 2 242 243
215 1 243 244
216 2 243 331
217 3 244 245
218 3 244 332
219 4 245 317
220 5 245 246
221 2 248 249
222 2 249 316
223 1 249 250
224 3 250 317
225 3 250 251
226 5 251 252
227 4 251 332
228 2 253 254
229 1 254 255
230 2 254 319
231 3 255 256
232 3 255 320
233 5 256 257
234 4 256 335
235 2 259 260
236 2 260 322
237 1 260 261
238 3 261 323
239 3 261 262
240 5 262 263
241 4 262 326
242 2 264 265
243 2 265 313
244 1 265 266
245 3 266 314
246 3 266 267
247 5 267 268
248 4 267 329
249 2 270 271
250 2 271 352
251 1 271 272
252 3 272 353
253 3 272 273
254 4 273 344
255 5 273 274
256 2 276 277
257 2 277 355
258 1 277 278
259 3 278 279
260 3 278 356
261 5 279 280
262 4 279 347
263 2 282 283
264 2 283 358
265 1 283 284
266 3 284 359
267 3 284 285
268 4 285 338
269 5 285 286
270 2 288 289
271 2 289 349
272 1 289 290
273 3 290 350
274 3 290 291
275 5 291 292
276 4 291 341
277 2 293 294
278 2 294 346
279 1 294 295
280 3 295 347
281 3 295 296
282 4 296 356
283 5 296 297
284 2 298 299
285 1 299 300
286 2 299 337
287 3 300 301
288 3 300 338
289 5 301 302
290 4 301 359
291 2 303 304
292 2 304 340
293 1 304 305
294 3 305 306
295 3 305 341
296 4 306 350
297 5 306 307
298 2 308 309
299 1 309 310
300 2 309 343
301 3 310 311
302 3 310 344
303 5 311 312
304 4 311 353
305 5 314 315
306 5 317 318
307 5 320 321
308 5 323 324
309 5 326 327
310 5 329 330
311 5 332 333
312 5 335 336
313 5 338 339
314 5 341 342
315 5 344 345
316 5 347 348
317 5 350 351
318 5 353 354
319 5 356 357
320 5 359 360
321 2 361 362
322 2 362 416
323 1 362 363
324 3 363 417
325 3 363 364
326 5 364 365
327 4 364 408
328 2 366 367
329 2 367 413
330 1 367 368
331 3 368 369
332 3 368 414
333 5 369 370
334 4 369 411
335 2 371 372
336 2 372 422
337 1 372 373
338 3 373 423
339 3 373 374
340 5 374 375
341 4 374 402
342 2 376 377
343 2 377 419
344 1 377 378
345 3 378 420
346 3 378 379
347 5 379 380
348 4 379 405
349 2 381 382
350 2 382 404
351 1 382 383
352 3 383 384
353 3 383 405
354 5 384 385
355 4 384 420
356 2 386 387
357 1 387 388
358 2 387 401
359 3 388 389
360 3 388 402
361 5 389 390
362 4 389 423
363 2 391 392
364 2 392 410
365 1 392 393
366 3 393 411
367 3 393 394
368 5 394 395
369 4 394 414
370 2 396 397
371 1 397 398
372 2 397 407
373 3 398 399
374 3 398 408
375 5 399 400
376 4 399 417
377 5 402 403
378 5 405 406
379 5 408 409
380 5 411 412
381 5 414 415
382 5 417 418
383 5 420 421
384 5 423 424

 Angles

1 2 3 4 5
2 7 3 4 174
3 2 5 4 174
4 1 4 5 6
5 1 4 5 175
6 5 6 5 175
7 4 5 6 7
8 3 5 6 160
9 6 7 6 160
10 2 10 11 12
11 7 10 11 165
12 2 12 11 165
13 1 11 12 13
14 1 11 12 166
15 5 13 12 166
16 4 12 13 14
17 3 12 13 163
18 6 14 13 163
19 2 17 18 19
20 7 17 18 168
21 2 19 18 168
22 1 18 19 20
23 1 18 19 169
24 5 20 19 169
25 4 19 20 21
26 3 19 20 154
27 6 21 20 154
28 2 24 25 26
29 7 24 25 171
30 2 26 25 171
31 1 25 26 172
32 1 25 26 27
33 5 27 26 172
34 4 26 27 28
35 3 26 27 157
36 6 28 27 157
37 2 31 32 33
38 7 31 32 156
39 2 33 32 156
40 1 32 33 34
41 1 32 33 157
42 5 34 33 157
43 4 33 34 35