LAMMPS (14 May 2016)
# ----------------- Init Section -----------------
units           real
atom_style      full
neigh_modify    delay 0 every 1
pair_style      lj/cut/coul/long 12.0
pair_modify     mix arithmetic shift yes
special_bonds   lj/coul 0.0 0.0 1.0
kspace_style    pppm 1.0e-6
bond_style      harmonic
angle_style     harmonic
dihedral_style  harmonic
improper_style  cvff

# ----------------- Atom Definition Section -----------------
read_data "data.infrared"
  orthogonal box = (-1e-06 -1e-06 -1e-06) to (25.832 25.832 25.832)
  1 by 1 by 1 MPI processor grid
  reading atoms ...
  424 atoms
  scanning bonds ...
  2 = max bonds/atom
  scanning angles ...
  3 = max angles/atom
  scanning dihedrals ...
  8 = max dihedrals/atom
  scanning impropers ...
  2 = max impropers/atom
  reading bonds ...
  384 bonds
  reading angles ...
  576 angles
  reading dihedrals ...
  768 dihedrals
  reading impropers ...
  192 impropers
  3 = max # of 1-2 neighbors
  6 = max # of 1-3 neighbors
  9 = max # of special neighbors

# ----------------- Settings Section -----------------
pair_coeff 1 1 0.09340 3.74
pair_coeff 2 2 0.09511 3.47
pair_coeff 3 3 0.09511 3.47
pair_coeff 4 4 0.01520 2.85
pair_coeff 5 5 1.39104 2.98
pair_coeff 6 6 0.14010 3.11
pair_coeff 7 7 0.00083 2.70

bond_coeff 1 351.487 1.44
bond_coeff 2 540.360 1.27
bond_coeff 3 480.321 1.365
bond_coeff 4 480.321 1.365
bond_coeff 5 363.658 0.95

angle_coeff 1  34.7035 120
angle_coeff 2  54.5309 114
angle_coeff 3  90.0601 120
angle_coeff 4  37.0246 120
angle_coeff 5  90.0601 120
angle_coeff 6  37.0246 120
angle_coeff 7 135.0901 132

dihedral_coeff 1 3.0021 -1 2
dihedral_coeff 2 3.0021 -1 2
dihedral_coeff 3 3.0021 -1 2
dihedral_coeff 4 3.0021 -1 2
dihedral_coeff 5 3.0021 -1 2
dihedral_coeff 6 3.0021 -1 2
dihedral_coeff 7 3.0021 -1 2
dihedral_coeff 8 2.5017 -1 2

improper_coeff 1 10.0095 -1 2
improper_coeff 2  0.3702 -1 2
improper_coeff 3 10.0076 -1 2

timestep           0.5
thermo             200

# ----------------- Run Section -----------------
#equilibration
run                0
WARNING: No fixes defined, atoms won't move (../verlet.cpp:55)
PPPM initialization ...
WARNING: Using 12-bit tables for long-range coulomb (../kspace.cpp:316)
  G vector (1/distance) = 0.268643
  grid = 24 24 24
  stencil order = 5
  estimated absolute RMS force accuracy = 0.000365265
  estimated relative force accuracy = 1.09998e-06
  using double precision FFTs
  3d grid and FFT values/proc = 29791 13824
Neighbor list info ...
  1 neighbor list requests
  update every 1 steps, delay 0 steps, check yes
  max neighbors/atom: 2000, page size: 100000
  master list distance cutoff = 14
  ghost atom cutoff = 14
  binsize = 7 -> bins = 4 4 4
WARNING: Inconsistent image flags (../domain.cpp:774)
Memory usage per processor = 12.3825 Mbytes
Step Temp E_pair E_mol TotEng Press 
       0            0   -8698.2877    223.43775     -8474.85    4957.0256 
Loop time of 9.53674e-07 on 1 procs for 0 steps with 424 atoms

209.7% CPU use with 1 MPI tasks x no OpenMP threads

MPI task timing breakdown:
Section |  min time  |  avg time  |  max time  |%varavg| %total
---------------------------------------------------------------
Pair    | 0          | 0          | 0          |   0.0 |  0.00
Bond    | 0          | 0          | 0          |   0.0 |  0.00
Kspace  | 0          | 0          | 0          |   0.0 |  0.00
Neigh   | 0          | 0          | 0          |   0.0 |  0.00
Comm    | 0          | 0          | 0          |   0.0 |  0.00
Output  | 0          | 0          | 0          |   0.0 |  0.00
Modify  | 0          | 0          | 0          |   0.0 |  0.00
Other   |            | 9.537e-07  |            |       |100.00

Nlocal:    424 ave 424 max 424 min
Histogram: 1 0 0 0 0 0 0 0 0 0
Nghost:    3160 ave 3160 max 3160 min
Histogram: 1 0 0 0 0 0 0 0 0 0
Neighs:    54968 ave 54968 max 54968 min
Histogram: 1 0 0 0 0 0 0 0 0 0

Total # of neighbors = 54968
Ave neighs/atom = 129.642
Ave special neighs/atom = 4.5283
Neighbor list builds = 0
Dangerous builds = 0
velocity           all create 300 38564
fix                1 all nvt temp 300 300 100.0
run                2000000
PPPM initialization ...
WARNING: Using 12-bit tables for long-range coulomb (../kspace.cpp:316)
  G vector (1/distance) = 0.268643
  grid = 24 24 24
  stencil order = 5
  estimated absolute RMS force accuracy = 0.000365265
  estimated relative force accuracy = 1.09998e-06
  using double precision FFTs
  3d grid and FFT values/proc = 29791 13824
WARNING: Inconsistent image flags (../domain.cpp:774)
Memory usage per processor = 12.3825 Mbytes
Step Temp E_pair E_mol TotEng Press 
       0          300   -8698.2877    223.43775   -8096.5852    5960.1496 
     200    209.66116   -8829.9799    509.22954   -8056.3922    2377.1086 
     400    228.73496   -8762.0966    476.93814   -7996.7506    1826.3832 
     600    276.75772   -8859.2443    579.61799   -7930.6673   -1796.2761 
     800    294.84663   -8738.5202    493.80553   -7872.9477   -30.023258 
    1000    325.94507   -8806.9058    555.02658   -7840.9007    1839.0787 
    1200    336.56817   -8889.9676    626.87565    -7838.719   -4739.1462 
    1400    318.97834   -8703.8654    435.84995   -7865.8211    4807.1537 
    1600    324.61629   -8803.0923    498.86884   -7894.9205    948.21795 
    1800    277.69515   -8825.0505    570.94272   -7903.9668    -3344.632 
    2000    303.27222   -8805.1326     541.4337   -7881.3082    2476.5572 
    2200    290.89514   -8735.9225    513.42019   -7855.7177    901.02424 
    2400    299.03026   -8794.6404    551.64875   -7865.9496   -12.899789 
    2600    279.36521   -8839.4396    601.97043   -7885.2224   -2786.9043 
    2800    286.36412   -8761.3183    503.66691   -7896.5798    3838.2423 
    3000    303.37175    -8783.781    529.39881   -7871.8661   -2338.9263 
    3200    316.10625    -8813.605    572.84415    -7842.188   -1318.2763 
    3400    322.23991   -8786.4734    533.59654   -7846.5702    3180.6847 
    3600    303.50556   -8791.4757    537.74817   -7871.0426   -1517.8774 
    3800    315.18218   -8766.1646    476.45743   -7892.2994    1435.4458 
    4000    282.31561   -8807.8846    562.95096   -7888.9668     1691.668 
    4200    304.05516   -8820.7381     557.6176   -7879.7426   -569.13374 
    4400    286.12897   -8751.5988    528.57243   -7862.2513   -357.86874 
    4600    310.92685   -8792.7688    570.09723   -7830.6293    1000.9776 
    4800     303.7429   -8823.9405    613.44931    -7827.507   -281.88552 
    5000     304.6332   -8794.8744     534.7704   -7875.9973    845.74933 
    5200    298.25421   -8749.2468    484.91721    -7888.266   -63.527319 
    5400    309.34893   -8827.4815    553.30806   -7884.1208    218.29974 
    5600    292.89658   -8812.1861    572.57401   -7870.3039   -84.718985 
    5800    303.05614   -8740.2132    515.26876   -7842.8263     2732.245 
    6000    324.18762   -8804.8513    556.87119   -7839.2175    -1435.926 
    6200    289.55639   -8828.4713    581.79009   -7881.5846    572.63882 
    6400    312.40491   -8805.9718    521.55865   -7890.5073    1742.3625 
    6600    285.22104   -8773.1779    532.92551   -7880.6222   -2147.2606 
    6800    301.65239   -8785.5245    547.65109   -7857.5251    572.72046 
    7000    309.12316   -8827.5273    593.92161   -7843.8377    411.25465 
    7200    305.52295   -8763.4552    516.15544   -7862.0712    1839.7526 
    7400    297.91601   -8800.4184    527.33466   -7897.4466   -1291.5564 
    7600    295.13077    -8788.418    519.06814   -7897.2246    2522.6793 
    7800    287.61739   -8808.3341    572.06551   -7873.6168    571.61458 
    8000    295.53925   -8775.9781    555.13312   -7848.2047   -861.96357 
    8200     318.7409   -8754.9155    496.05313   -7856.9675    1411.5471 
    8400    282.19328   -8837.9513    607.66651   -7874.4722   -1179.9126 
    8600    293.67912   -8793.0764    541.44672   -7881.3348    1187.1186 
    8800    315.26897   -8758.2564    483.30176   -7877.4374    793.62545 
    9000    306.45468    -8808.125    574.67739   -7847.0442   -1130.4261 
    9200     324.8596   -8791.8707    552.42054   -7829.8404    1052.0644 
    9400    295.94673   -8771.5175    538.16043   -7860.2029    946.39044 
    9600    297.11036   -8783.5627    527.85829   -7881.0832   -554.34623 
    9800    307.06233   -8818.5256     540.9084   -7890.4476   -98.295703 
   10000    278.78732   -8795.2501    552.82169   -7890.9103    1424.7912 
   10200    304.58069   -8773.8815    538.78745   -7851.0536    2.6628932 
   10400    318.45294   -8783.9666    539.94293   -7842.4919   -295.54679 
   10600    307.96241   -8800.3778    545.49863   -7866.5747    2191.8975 
   10800    300.26187   -8808.2088    548.61042   -7881.0034   -483.80334 
   11000    292.96508   -8768.5708    520.79836   -7878.3778   -523.22477 
   11200    284.59865   -8789.9864    554.88046   -7876.2604    159.81219 
   11400    312.71287   -8809.2109    556.85625   -7858.0605   -534.39507 
   11600    335.89745   -8753.7693    508.82149   -7821.4206    2423.1497 
   11800    305.40959   -8753.7756    524.22485   -7844.4651    1739.4237 
   12000    310.75994   -8797.4879    539.66781   -7865.9883    365.44673 
   12200    297.29007   -8790.1061    532.83037   -7882.4278    1487.9906 
   12400    281.18721   -8764.8697    515.82087   -7894.5048    268.31048 
   12600    279.71439   -8803.7804    579.73122   -7871.3621   -1569.8549 
   12800    329.06848    -8819.708    565.26313   -7839.5282    530.67222 
   13000    299.35573   -8779.0063    546.94498   -7854.6088    1347.8746 
   13200     314.1296    -8806.504    535.57711   -7874.8463    -2043.426 
   13400    288.87589   -8791.8117    538.70988   -7888.8632   -470.61579 
   13600    318.16506   -8794.7446     515.1679   -7878.4079    2725.1176 
   13800    315.63495   -8782.9318    546.91948   -7838.0336   -965.58203 
   14000    335.15545    -8781.042    524.76936    -7833.681    604.52815 
   14200    296.39399   -8802.0294    562.49439    -7865.817    1693.5763 
   14400    290.20865   -8805.6278    556.12769   -7883.5811   -699.05072 
   14600    297.29003   -8761.4766    506.04055   -7880.5882   -216.91536 
   14800    300.93682   -8792.6296     542.5875   -7870.5961    896.77467 
   15000    320.24254   -8828.6516    583.12629   -7841.7371   -235.97392 
   15200     312.2622   -8806.1197    592.04798   -7820.3458   -1172.7905 
   15400     313.9124   -8774.7853    530.80775   -7848.1708    449.48978 
   15600    298.47586   -8811.3709    552.03314   -7882.9947    797.37973 
   15800    292.92745   -8801.6958    540.63705   -7891.7116    768.83629 
   16000    303.18911   -8762.2406    493.95406   -7886.0007     1674.884 
   16200    329.61077   -8789.6915    511.27127   -7862.8197    597.38375 
   16400    286.54775   -8797.7176    592.18096   -7844.2336   -355.82091 
   16600    299.17925   -8776.6695    550.63616   -7848.8034    636.16705 
   16800    292.30799   -8789.7076    532.71936   -7888.4222   -1426.4188 
   17000    299.27608   -8808.7684    529.00355   -7902.4128    878.67307 
   17200     291.7426   -8812.2402      558.129    -7886.258    345.01156 
   17400    301.23334   -8769.5101    530.24324    -7859.447    428.81664 
   17600       306.98   -8786.6914    542.54763   -7857.0781    444.16034 
   17800    284.62605   -8788.9782    562.00021   -7868.0979    2087.9741 
   18000     302.6153    -8801.222    537.80363    -7881.856    837.71577 
   18200    291.37785   -8788.0491    533.16743   -7887.4884   -949.78513 
   18400    312.73099   -8783.5363    526.75727   -7862.4619    904.04909 
   18600    318.28094    -8830.084    598.04218   -7830.7269   -833.13276 
   18800    307.94965   -8777.5219    541.64332   -7847.5902   -373.23703 
   19000    290.27015   -8781.4523    538.02114   -7877.4345    191.24718 
   19200    292.29879   -8806.1026    547.74572   -7889.8024    619.73892 
   19400    292.85577   -8792.0242    543.62821   -7879.1392    1076.3163 
   19600    303.21124   -8774.8682    537.74605   -7854.8084   -367.85531 
   19800    337.29006    -8769.537    529.55668   -7814.6971    54.413075 
   20000    321.95103   -8825.2041     587.6556   -7831.6061     1085.193 
   20200    304.28275   -8764.8845    520.14018   -7861.0795    1243.6812 
   20400    291.21187   -8779.6814    537.19548    -7875.302    -1412.366 
   20600    295.72571   -8792.1382    533.28885   -7885.9739    386.75784 
   20800    283.40443   -8794.6729    541.69092   -7895.6422    1931.9282 
   21000    291.39883   -8787.7694    530.63586   -7889.7138    -527.2591 
   21200    306.87964    -8786.023    542.78674    -7856.297   -1280.1876 
   21400    310.84742   -8812.5401    569.46273   -7851.1353    2076.3285 
   21600    306.44285   -8794.4977    535.56238   -7872.5468    201.89503 
   21800    298.87049   -8775.5098    509.11426   -7889.5549    168.74691 
   22000    287.01798   -8788.9269    504.78819   -7922.2427    970.63754 
   22200    268.54289   -8817.1411     534.5066   -7944.0334     102.3929 
   22400    280.01796   -8798.9473     533.1675     -7912.71   -115.53964 
   22600    285.06167   -8779.8013    530.69327   -7889.6787    588.97029 
   22800    287.67995   -8793.5397    563.02646   -7867.7825    1517.0905 
   23000    303.23471   -8789.6472    556.30368   -7851.0001   -53.596562 
   23200    309.91027   -8765.4756    522.02722   -7852.6879    1018.9993 
   23400    280.40944    -8787.838    548.03292   -7886.2417   -72.279064 
   23600    293.07212   -8803.2518    531.83374   -7901.8886    687.82634 
   23800     292.1974   -8800.6928    539.86247   -7892.4037    1335.6816 
   24000    312.85958   -8787.3771    515.85302   -7877.0449    262.07381 
   24200    306.41866   -8816.0537    558.64041   -7871.0553   -1232.2384 
   24400    303.94325   -8797.4008    547.07117   -7867.0929    1251.5017 
   24600    311.50943   -8791.4403    529.85567   -7868.8078    477.89045 
   24800    284.53037   -8791.3993    539.86564   -7892.7743   -79.676807 
   25000    272.48365   -8799.9159    540.40745   -7915.9385    927.06841 
   25200    293.44076   -8787.7402    522.36776   -7895.3781     2436.107 
   25400    285.42872   -8790.2086    561.49129   -7868.8251    288.67411 
   25600    310.62272   -8776.1983    522.13532   -7862.4041    458.12411 
   25800    305.80937   -8787.7675    537.00681    -7865.171    1083.8233 
   26000    301.04959   -8804.3137     543.5904   -7881.1351   -526.76788 
   26200    277.69615   -8784.8845    516.48918   -7918.2531    828.94663 
   26400     279.1922   -8790.9002    530.72349   -7908.1481    573.40523 
   26600    299.32924   -8818.6159    557.34637   -7883.8504    328.03266 
   26800    286.97449    -8769.264     534.9923   -7872.4306    1526.5958 
   27000    320.78143   -8767.9409    501.31591   -7862.1572    1217.6788 
   27200    300.32021    -8789.186    555.48377   -7855.0337   -239.24544 
   27400    302.15511    -8764.587    523.24467   -7860.3601    2849.9731 
   27600     285.0655   -8768.0315    526.58916   -7882.0082    1540.8485 
   27800    282.22568   -8807.9218    555.30928   -7896.7591   -631.24574 
   28000    300.28184   -8791.5844    525.31644   -7887.6478     2492.514 
   28200    308.18202   -8758.9955    520.02567   -7850.3885    1898.5642 
   28400    306.07286   -8807.2072    575.80623    -7845.479   -2075.1856 
   28600    305.10012   -8770.4404    526.83365   -7858.9113    1756.2058 
   28800    299.34338   -8771.9161    518.96757   -7875.5116    2675.3368 
   29000    303.88598   -8814.1714    543.08938   -7887.9175   -805.84322 
   29200    264.08238   -8782.5316    531.18038   -7918.3743    1186.3885 
   29400    275.72023   -8772.9263    494.92321   -7930.3522    2382.2651 
   29600    291.82469    -8817.132    553.59012   -7895.5852   -1947.2502 
   29800    307.94855   -8760.6542    499.21562   -7873.1516    1199.9035 
   30000    313.37162    -8788.912    530.53073   -7863.2564    1454.1637 
   30200    308.17528    -8826.257    584.27174   -7853.4124   -801.57216 
   30400     308.2438   -8761.5436    508.74362   -7864.1407    1907.1952 
   30600    288.83401   -8790.5911    529.84756   -7896.5578    913.05783 
   30800    289.45528   -8803.3147    537.11648   -7901.2291   -908.87469 
   31000    295.27392   -8804.5139    555.22633   -7876.9818    1016.8936 
   31200     300.6693    -8758.467    529.74444   -7849.6139    1610.7681 
   31400    312.36391   -8799.8923    547.57313   -7858.4649   -817.13814 
   31600    293.69105   -8809.2467     562.6689   -7876.2678    471.08027 
   31800    298.27146   -8767.8916    510.29043   -7881.5158    2478.6059 
   32000    275.89913    -8757.657    529.77504   -7880.0055   -445.65852 
   32200    292.88075   -8789.1413    548.10912   -7871.7439    1074.5236 
   32400    311.57966   -8791.6236     548.8483   -7849.9099    1853.1714 
   32600    295.79563   -8782.0713    563.92482   -7845.1829   -912.57613 
   32800    287.59067   -8785.2248    542.85826   -7879.7485   -104.03519 
   33000    295.11124    -8799.975    536.09796   -7891.7764    941.42616 
   33200     299.4269   -8817.2341    556.11662   -7883.5753    -621.1103 
   33400    299.83405   -8781.2709    535.39033    -7867.825   -440.16902 
   33600    310.95464   -8760.3891    518.63156   -7849.6802    1772.2374 
   33800    327.44755   -8797.1035    568.89481   -7815.3357    294.81203 
   34000    312.96348   -8777.4443    559.31867   -7823.5154      471.142 
   34200    300.41126   -8780.0056    541.94098   -7859.2813    552.45068 
   34400    319.78405    -8816.299    536.27412   -7876.8147    -607.6276 
   34600    292.45388   -8800.9943    541.82772   -7890.4166    1150.2555 
   34800    301.07118   -8778.6531    515.29819   -7883.7395    1178.1726 
   35000     319.9949   -8779.0245    528.73509   -7846.8134    -916.7356 
   35200    313.42812   -8791.6674    560.75549   -7835.7158     2157.164 
   35400    312.04469   -8802.1293     551.9422   -7856.7354    67.339825 
   35600    314.29921   -8782.3375    515.15743   -7870.8856   -383.17004 
   35800    299.64587    -8788.603    536.49979    -7874.285    275.84877 
   36000    290.42718   -8796.9615    551.01552   -7879.7514    417.05547 
   36200    285.30183   -8790.6868    548.35227   -7882.6024    557.71967 
   36400    303.05181   -8805.1547     538.9416   -7884.1003   -708.36168 
   36600    302.70403   -8773.6778    517.51153    -7874.492     1504.164 
   36800    309.06195   -8794.4793    547.82703   -7856.9614    626.71038 
   37000    314.71896   -8768.8133    521.95931   -7850.0304    304.32305 
   37200    292.67858     -8772.75    533.44548   -7870.2712   -400.44028 
   37400    290.92069   -8807.9289    543.67935   -7897.4326     -528.564 
   37600    285.26188   -8793.9949    538.26167   -7896.0515    267.52042 
   37800     297.5249   -8803.3473    558.42375   -7869.7795     42.52283 
   38000    307.74579   -8791.7283     562.3612   -7841.3358   -216.99647 
   38200    300.88024   -8793.7896    562.28921   -7852.1257     507.1054 
   38400    289.13537   -8793.7134    554.11205   -7875.0356   -524.96874 
   38600    302.03259   -8790.0953    523.92448   -7885.3432    185.96746 
   38800    309.94972   -8797.9013    527.51783   -7879.5733    620.68633 
   39000    323.82423   -8785.3163    531.99133   -7845.0206    27.305099 
   39200    297.72209   -8774.8641    568.38224   -7831.0892    692.17769 
   39400    321.98756   -8808.0075    541.45517   -7860.5638    589.93148 
   39600       288.54   -8764.0268    511.54918   -7888.6625    1468.3361 
   39800    300.86743   -8781.4231    515.98858    -7886.076    158.60686 
   40000    299.33788   -8808.7829    561.41144   -7869.9416     93.87475 
   40200    311.18684   -8768.3062    529.44286   -7846.4933    1488.4536 
   40400    289.90657    -8811.571    598.96808   -7847.0648   -1447.3812 
   40600    291.33812   -8784.5443    522.20833   -7894.9928    698.66608 
   40800    278.44657   -8797.9909    547.41067   -7899.4918    495.15301 
   41000    296.45872   -8791.0837    541.08801    -7876.196   -827.86556 
   41200    311.40854    -8768.319    518.39112   -7857.2782    626.69108 
   41400    294.39016   -8797.8581    563.42595   -7863.2407    1709.9069 
   41600    287.04641   -8824.6486    575.35331   -7887.3634   -882.94722 
   41800    273.94071    -8803.286    537.46529   -7920.4136      288.533 
   42000    283.74569   -8803.9897    541.95203   -7904.2676     80.79331 
   42200     310.9097   -8788.7353    515.34582   -7881.3688    806.36261 
   42400    292.92822   -8775.4941    536.78325   -7869.3627    868.54864 
   42600    303.25146    -8753.775     509.1596   -7862.2509    733.67243 
   42800    308.87415    -8814.127    568.22226   -7856.4506    -849.6068 
   43000    309.83258   -8777.6269    539.62757   -7847.3368    1153.7522 
   43200    303.79043   -8786.7434    543.68772   -7860.0116    713.60432 
   43400    299.98504   -8820.1805    551.92748   -7890.0071   -1655.0069 
   43600    294.31217   -8781.8698    513.01787   -7897.7588    2626.4577 
   43800     289.6245   -8787.7935    543.42085   -7879.1902   -117.57044 
   44000    304.29505   -8780.8122    551.54718   -7845.5847    -155.9106 
   44200    317.99758   -8776.8214     532.6813   -7843.1825    1684.8869 
   44400    294.88279   -8763.4847    533.22417   -7858.4479    1481.3828 
   44600    295.15579   -8820.1144    568.32758     -7879.63   -1588.3985 
   44800    294.12845   -8767.0932    507.02816   -7889.2036    1218.5443 
   45000    294.04978   -8795.6545    539.01378   -7885.8784    243.20814 
   45200    315.01365   -8807.4573    564.08111   -7846.1809   -880.10173 
   45400    328.52862   -8777.7173    523.75955   -7839.7217    1551.1379 
   45600    308.06231   -8790.5592    534.96862   -7867.1601    654.55917 
   45800     293.5463   -8798.0007     545.0666   -7882.8067     317.1356 
   46000    316.26898   -8788.7376    505.16218   -7884.7974     2030.056 
   46200    299.35479   -8771.0206     514.3793   -7879.1901    208.32747 
   46400    310.68751   -8809.2075    567.86092   -7849.6061   -1742.3242 
   46600    326.35531    -8788.292     565.3079   -7811.4884    1216.1184 
   46800     295.5791   -8781.8438    577.51988   -7831.6333   -584.52941 
   47000     306.5218     -8797.53    550.10112   -7860.9408   -1114.5477 
   47200    280.59738   -8785.3482    552.51055   -7879.0373    1526.4855 
   47400    302.76498   -8799.7301    529.94682   -7888.0322    1270.2756 
   47600    288.88315   -8797.4778    546.27229   -7886.9578   -1797.3926 
   47800    317.58239   -8768.0196    520.90747    -7846.678    1556.1112 
   48000    317.62565   -8799.2663    560.58524   -7838.1924    1057.8989 
   48200    297.30458   -8792.9573    556.00574   -7862.0853   -571.15228 
   48400    298.74654   -8770.9181     517.3791   -7876.8547    604.89308 
   48600    294.53995    -8778.479    531.23523   -7875.8634    1943.6093 
   48800    324.51662   -8799.4564    517.03543   -7873.2436    738.52644 
   49000     292.2733   -8771.5574    534.77658   -7868.2585    834.69503 
   49200    323.12468   -8758.3458    519.48843    -7831.435     1534.152 
   49400    328.40008    -8801.838    571.32618   -7816.4378   -483.56402 
   49600     319.8817   -8780.6879    527.81932   -7849.5353    2167.8848 
   49800    308.87159    -8781.661    523.00161   -7869.2086    350.06552 
   50000    281.61638    -8807.349    571.93217   -7880.3316   -849.98158 
   50200    294.89694   -8806.0226    548.84503   -7885.3471   -51.419386 
   50400    319.18865   -8793.8055    525.30394   -7866.0422    1184.6724 
   50600    306.05381   -8775.0369    546.80335   -7842.3356    196.12696 
   50800    302.22509   -8787.0027    545.05274   -7860.8796     1243.577 
   51000    268.80009   -8800.2209    570.35338   -7890.9422    247.80113 
   51200    288.09143   -8790.3491    533.66226   -7893.4373   -872.20469 
   51400     293.4956   -8797.7075    538.92073   -7888.7233   -200.73564 
   51600    286.31448   -8788.8641    554.10411   -7873.7511    873.33516 
   51800    302.12013   -8786.1476    552.50408   -7852.7055    523.18484 
   52000    313.03755   -8775.5139    531.88783   -7848.9224    520.64304 
   52200    285.41651   -8800.9897    559.19351   -7881.9195   -251.93627 
   52400    288.10563   -8783.5097     517.6476   -7902.5947    67.974268 
   52600    294.39636   -8792.9394    528.39922   -7893.3409    652.86567 
   52800    300.93014   -8780.5267    536.79457   -7864.2945    863.75223 
   53000    287.69701   -8805.4045    592.22625   -7850.4261     -320.178 
   53200    295.49972   -8789.5619    558.48855   -7858.4829    241.06472 
   53400    308.54936    -8771.248    514.34469   -7867.8588    920.77826 
   53600    307.12474   -8792.5178    534.57577   -7870.6938   -661.30379 
   53800    287.79523   -8781.7848    540.18848   -7878.7203    1349.9908 
   54000    293.25612    -8803.509    551.20851   -7882.5389    346.33114 
   54200    302.46217   -8777.0592    514.84337   -7880.8465    121.02109 
   54400    294.70297   -8797.1086    565.49253   -7860.0302    1095.8133 
   54600    313.18303     -8780.24     539.1047   -7846.2483    1036.8633 
   54800    309.00372   -8790.0352     535.1219   -7865.2959    54.409645 
   55000    281.34322   -8773.6833    522.74562   -7896.1969    309.63813 
   55200     306.4276    -8797.236    513.52138   -7897.3454    1491.2605 
   55400    304.37439   -8805.6259    537.19226   -7884.6532    384.76166 
   55600    299.77177   -8767.2313    513.57276   -7875.6815    1651.5547 
   55800    304.14899   -8775.1376    528.42577   -7863.2156    1774.5901 
   56000    318.51531   -8791.4945    536.84467   -7853.0394   -164.89275 
   56200    319.40661   -8776.4091     517.3604   -7856.3144    2311.9128 
   56400    301.87717   -8779.8123    512.67747   -7886.5032    431.86355 
   56600    299.31283    -8808.233    532.77455   -7898.0601    194.88407 
   56800    294.32079   -8797.7982    540.14444   -7886.5497    1311.1693 
   57000    298.90459   -8795.6134    568.76489   -7849.9649   -565.98634 
   57200     309.5952   -8783.9469    547.64663    -7845.937    -337.9684 
   57400    307.84005    -8774.553    526.31284     -7860.09    1921.6771 
   57600    288.78879   -8788.5843    546.88754    -7877.568    557.97086 
   57800    290.38459   -8775.5523    527.43657   -7881.9749    330.83593 
   58000    306.16038   -8776.5754    511.27582   -7879.2672    1211.6732 
   58200    296.81364   -8806.2797    555.36404   -7876.6685    693.45504 
   58400    293.91862   -8783.8597    537.09679    -7876.166   -724.79585 
   58600    293.01048    -8746.484    511.76166   -7865.2705    1289.7185 
   58800    332.63955   -8800.1923    542.21986    -7838.553    659.99213 
   59000    299.84769   -8811.2484    600.86376   -7832.3119   -1409.9112 
   59200     296.0527   -8776.1498    530.26631   -7872.5958    940.70028 
   59400    304.55805   -8790.3586    515.41764    -7890.929    487.42095 
   59600    294.17677   -8818.0942    560.22373    -7886.948   -833.31623 
   59800    309.69503    -8794.259    543.26514   -7860.5047    743.00798 
   60000    303.21119   -8763.2455    529.89723   -7851.0345    715.69701 
   60200    310.55201   -8799.7747    547.48118   -7860.7238   -660.84686 
   60400    280.45704   -8801.0577    542.40815   -7905.0261    1078.7799 
   60600    285.75173    -8800.115    517.77702   -7922.0385     1361.506 
   60800    283.62251   -8791.0347    541.43575   -7891.9843   -905.25705 
   61000    305.70627   -8784.2493    534.18092   -7864.6086     841.5936 
   61200     306.1415   -8783.6796     543.8558   -7853.8153    1682.9971 
   61400    305.20102    -8791.902     548.0003    -7859.079   -354.49492 
   61600    314.13033   -8784.2175    498.93694   -7889.1991    1703.3912 
   61800    282.44591   -8800.6971    535.29208   -7909.2739    1626.0853 
   62000     278.9588   -8798.5773    553.55637   -7893.2866   -241.25304 
   62200    298.78059   -8762.5673    513.62021   -7872.2198    1390.9807 
   62400    310.18388   -8777.6891    521.33324   -7865.2504    142.10799 
   62600    290.96926   -8788.9699    550.74242   -7871.3494    908.25282 
   62800    292.42255   -8782.1227    534.63096   -7878.7812    912.65922 
   63000    290.19028   -8781.2977    531.07777    -7884.324    345.85867 
   63200    297.14314   -8772.0092    513.71712   -7883.6294    518.30964 
   63400     304.1764   -8800.6376    556.27407   -7860.8328    617.05354 
   63600    308.05357   -8765.2699     531.3583   -7845.4922    953.12299 
   63800    293.12599   -8776.6019    543.01069   -7863.9938   -122.08249 
   64000    276.55465   -8791.0883    543.53142   -7898.8539    1034.2229 
   64200    278.80455   -8793.5186    545.86488   -7896.1139    342.56329 
   64400    304.49682   -8803.4338    542.03432   -7877.4647   -339.04682 
   64600    275.34096   -8737.7014    524.10134   -7866.4275    704.41217 
   64800    315.68412   -8792.4418    541.07758   -7853.3236   -323.91131 
   65000    301.35869   -8780.1402    557.67116   -7842.4911    116.91497 
   65200    302.65206   -8747.6196    520.19226   -7845.8186    1478.2763 
   65400    307.11014   -8800.3455    541.98205   -7871.1336    -489.3691 
   65600    296.69654   -8799.4452    530.07801   -7895.2677    108.91671 
   65800    296.96359   -8764.7299    489.53598   -7900.7577    2380.8584 
   66000    296.85745   -8791.7995    539.07559   -7878.4215   -1147.9788 
   66200    311.02298   -8788.8633    552.70071   -7843.9991   -457.55045 
   66400     294.4478   -8801.8758    579.23493   -7851.3768    904.10443 
   66600    311.78207   -8765.4281    495.11985   -7877.1876    1386.2013 
   66800    297.54218   -8791.7038     526.8704   -7889.6676   -273.27388 
   67000    303.18898   -8779.3966    518.86117   -7878.2497     900.6396 
   67200    306.72468   -8776.8321    522.71448   -7867.3738   -2.3109936 
   67400    299.74758   -8781.7262    544.19125   -7859.5884   -85.530151 
   67600    308.40807   -8780.5992    529.32268   -7862.4102    818.17089 
   67800    306.11269   -8809.3889    538.96407   -7884.4527    387.73427 
   68000    289.29289   -8779.2246    515.32163   -7899.1385    86.929383 
   68200    284.31962   -8763.2853    520.03522   -7884.7564    857.28021 
   68400     313.0751   -8791.4078     537.9235   -7858.7334    705.81746 
   68600    314.01509   -8767.0723    518.71337   -7852.4227    805.81389 
   68800    293.87308   -8773.1748    526.92989   -7875.7055    1071.3168 
   69000    287.74522   -8800.7677    533.23152   -7904.7232    96.098826 
   69200    290.77418   -8802.1182    539.91353   -7895.5726   -275.01441 
   69400    297.46617   -8798.1944    541.28541   -7881.8391    420.04756 
   69600    296.26213   -8760.0632    513.96182   -7872.5496    1122.3369 
   69800     311.5284   -8796.7356    543.09198   -7860.8429    15.030098 
   70000    289.19519   -8777.1751    553.41099   -7859.1229    1536.9328 
   70200    292.81164   -8796.4628    542.39775   -7884.8639    141.94152 
   70400     279.6783   -8799.7692    544.10483   -7903.0228   -791.07105 
   70600    289.12844   -8777.9445    519.76311   -7893.6243    721.17084 
   70800    307.05845   -8789.3874    537.79602   -7864.4267     889.2739 
   71000    292.13502   -8768.9968    549.93293   -7850.7159     -513.792 
   71200    314.35003   -8801.1668    544.38358   -7860.4247   -298.20585 
   71400    304.65079   -8770.2092    516.58398   -7869.4963    2802.8553 
   71600    292.58216   -8789.0041    546.54267   -7873.5497    852.76746 
   71800    293.26801   -8775.0583    529.55284   -7875.7289    291.56797 
   72000    301.82868   -8781.9529    517.59745   -7883.7849     745.9557 
   72200     297.8026   -8827.5649    571.99794   -7880.0729   -101.80574 
   72400     305.2104   -8778.5749    521.85179   -7871.8886    68.434921 
   72600    314.89946    -8773.489    525.36852   -7851.0693    1412.2596 
   72800    317.96585   -8785.3007     540.8419   -7843.5411    629.80091 
   73000    307.56168   -8778.1969    519.95996   -7870.4377      945.927 
   73200    285.37043   -8784.6486    527.24867   -7897.5813   -177.65159 
   73400    288.86972   -8802.1629    545.30958   -7892.6225   -803.60094 
   73600    292.92958   -8801.9332    562.59709   -7869.9863   -691.10323 
   73800     314.5474   -8807.6559    556.39709   -7854.6514   -326.96827 
   74000    297.95842   -8763.8957    523.51417   -7864.6909    426.20601 
   74200    292.26513   -8782.1148    536.31143   -7877.2913    337.13442 
   74400    306.50305   -8780.1886    511.51739   -7882.2068    659.94249 
   74600    299.30338   -8780.7451    538.31815   -7865.0406   -80.004402 
   74800    310.95653   -8783.0087    554.78295   -7836.1461    964.46607 
   75000    297.43123   -8802.4314    570.92231   -7856.4832    648.66684 
   75200    287.94928   -8792.1473    545.93713   -7883.1399   -417.58044 
   75400    306.48175   -8777.4202    506.65618   -7884.3265    86.045795 
   75600    304.05554   -8764.1971    505.67385   -7875.1449    1005.1332 
   75800    309.95651   -8778.8201    534.78234    -7853.219    222.86346 
   76000    318.89429   -8785.9271    565.95029   -7817.8885    669.86854 
   76200     315.6016    -8776.899    551.07361   -7827.8888    962.19532 
   76400    292.52381   -8805.6809    562.34168    -7874.501   -1227.2918 
   76600    300.15067   -8781.0785    519.90498   -7882.7187    1635.1256 
   76800    281.73389   -8785.0994    542.40685   -7887.4592   -614.19086 
   77000    302.91526    -8770.243    514.85437    -7873.448     254.2847 
   77200    316.17498    -8772.899    523.20116   -7851.0383    1286.5433 
   77400    310.46291   -8817.3367    583.32628   -7842.5531   -173.70315 
   77600     310.5555   -8781.4116    526.75846   -7863.0791   -1027.2975 
   77800    274.96237   -8793.8564    552.55431   -7894.6068   -593.89817 
   78000    304.08982   -8800.4644    521.54012   -7895.5027    350.14915 
   78200     301.8836   -8811.4609    559.31641   -7871.5047    -207.4835 
   78400     286.0643   -8777.6564    568.06953   -7848.8933    -197.6233 
   78600    303.57989   -8785.5279    546.43222   -7856.3171    243.31922 
   78800    293.73965   -8816.3803     578.4071    -7867.602    639.98695 
   79000    316.13356   -8784.6701    507.90829   -7878.1545    1409.2909 
   79200    291.03512   -8769.4824     517.9685   -7884.5528    156.45052 
   79400    305.02183   -8776.7115    534.98056   -7857.1342     318.9292 
   79600     323.9572   -8801.4638    562.02908   -7830.9627    981.82048 
   79800    301.03498   -8782.1804    549.79028   -7852.8204    372.60926 
   80000    288.32128    -8781.735    537.95918   -7880.2365    187.07568 
   80200    281.50228   -8803.1969     564.1873   -7884.0682    348.57722 
   80400    298.48906   -8797.0008    545.76034   -7874.8807    814.22942 
   80600    320.06539   -8770.3276    521.50548   -7845.2573    402.22585 
   80800    314.79583   -8771.3867    547.30162   -7827.1644    481.29795 
   81000    287.73898   -8794.3886    570.49792   -7861.0856    401.86484 
   81200    300.52459   -8803.5503    537.25176   -7887.3723    71.809913 
   81400    289.75078   -8780.7358    527.84696   -7887.5471   -123.74544 
   81600    282.40969   -8800.5571    569.17426   -7875.2974   -536.55519 
   81800    308.90113   -8779.1783    541.79041   -7847.8998    619.78333 
   82000    299.68238   -8775.9512    566.06965   -7832.0172   -260.47918 
   82200      303.914   -8785.6497     535.7781   -7866.6717    262.02306 
   82400    282.86903   -8787.3457    537.27218   -7893.4088    282.57603 
   82600    296.64903   -8783.6313    526.68007   -7882.9116    1285.3524 
   82800    313.56814   -8781.5022    522.73244   -7863.3972    259.44611 
   83000    313.65169   -8799.4358    556.76783   -7847.1899   -358.55515 
   83200    325.61719   -8784.0203    531.74632   -7841.7089    901.33095 
   83400    290.17089   -8774.5987    535.45518   -7873.2721    220.35892 
   83600    295.62222   -8802.2519    533.83575   -7895.6712   -672.60026 
   83800    305.85017   -8785.1398     507.2136    -7892.285    774.76898 
   84000    302.41503   -8791.6305    546.05066   -7864.2699    376.21348 
   84200    312.89611   -8764.8673    529.47156   -7840.8705     776.8101 
   84400    299.36712   -8769.1679    541.76279   -7849.9383    956.30958 
   84600    282.66791   -8769.3684     547.9966   -7864.9607    313.36005 
   84800    295.68751    -8779.071     525.0632   -7881.1805    909.82377 
   85000    286.91459   -8765.5133    516.22774   -7887.5199    991.20718 
   85200     298.5652   -8797.4639    536.87203   -7884.1362    196.84291 
   85400    309.78619   -8780.2474    532.97433    -7856.669    611.51282 
   85600    317.02236   -8773.3861     533.8631    -7839.795    656.73917 
   85800    296.62105   -8781.2364    555.75379   -7851.4783    -41.93367 
   86000    296.33275   -8804.2189    544.83965   -7885.7385    164.72644 
   86200    310.35614   -8790.6701    505.33302   -7894.0144    1123.9252 
   86400    303.46325   -8778.0685    508.15649   -7887.2804    247.11745 
   86600    298.32519   -8796.4253    564.41015   -7855.8621   -1053.9996 
   86800     312.0563   -8768.1105    527.62878   -7847.0153    1590.9683 
   87000     296.6127   -8791.4292    558.70551   -7858.7298   -540.45177 
   87200    305.56469     -8811.74    552.92036   -7873.5384   -1653.3884 
   87400    289.24523   -8775.9126    519.22738   -7891.9809    1055.3821 
   87600     291.4522   -8796.4558    534.39093   -7894.5779    868.01452 
   87800    304.88881   -8773.0132    526.25131   -7862.3329   -864.65274 
   88000     310.7425   -8780.7791    547.85827    -7841.111    332.88139 
   88200    302.16647   -8776.6633    537.71256   -7857.9543    1512.5868 
   88400    277.29199   -8783.1331    549.20083   -7884.2996   -850.82245 
   88600    290.98208   -8790.2431     537.7602   -7885.5887    751.42071 
   88800    315.31029   -8784.6333    508.10288   -7878.9612    1133.4673 
   89000    287.60018   -8787.9156    554.47686   -7870.8087   -514.39525 
   89200    281.34109   -8754.3186    536.01304   -7863.5675    1170.5073 
   89400    301.18074   -8791.5182    547.61805   -7864.1466    528.35739 
   89600     289.5621   -8785.7783    548.82197   -7871.8525    563.04236 
   89800    288.59513   -8777.9391      531.517   -7882.5375    651.28073 
   90000    298.09071   -8774.7793    510.99982    -7887.922     592.0842 
   90200    297.49564   -8795.0964    545.42452   -7874.5647    110.15315 
   90400    304.90437   -8777.9107    539.11777   -7854.3443    797.51709 
   90600    292.74344   -8763.5096    549.26112   -7845.1333    371.97791 
   90800    302.45294   -8791.9453    538.30712   -7872.2806    -530.5915 
   91000    279.19333   -8787.4901    539.35307    -7896.107    359.91386 
   91200    281.84606   -8775.6271    534.30152   -7885.9508    1261.0721 
   91400    301.97968    -8788.452    540.93491   -7866.7562   -68.450343 
   91600     320.6627   -8783.5045    521.61155   -7857.5749    895.46057 
   91800    301.22824   -8789.5211    531.90716   -7877.8005    562.00479 
   92000    278.73992   -8802.6933    533.75898   -7917.4759   -1258.6419 
   92200    292.89648   -8798.4196    524.81741   -7904.2941    778.99225 
   92400    286.46667   -8779.5952    542.12796   -7876.2663    927.28956 
   92600    315.87921   -8788.3742    528.43137   -7861.6562      38.0617 
   92800    292.83732   -8788.3926    553.90837   -7865.2507   -394.47052 
   93000    299.38424   -8790.3246    532.87824    -7879.958    95.159445 
   93200     294.4649    -8789.808    500.91578   -7917.6066    43.779316 
   93400    295.64926   -8804.6866    510.83103   -7921.0765    5.8333446 
   93600    307.79471   -8807.2742    526.63959   -7892.5416    1126.2327 
   93800    306.42013   -8805.4288    538.73493    -7880.334    368.35727 
   94000    298.16138   -8781.8198    532.19207   -7873.6812   -789.43623 
   94200    324.38113   -8788.5282    524.50232   -7855.0193    863.95489 
   94400    314.62223   -8782.7362     540.7662   -7845.2683    300.58889 
   94600     319.2309   -8782.0184    516.28715   -7863.2185    1269.6581 
   94800      311.077   -8793.1925    506.45664   -7894.5043    769.70739 
   95000    278.71364   -8806.0018    550.52675   -7904.0499   -352.94216 
   95200    299.88532   -8804.2245    542.87139   -7883.2329    874.10952 
   95400    315.55296   -8778.0935    525.85126    -7854.367    498.32165 
   95600     301.4329   -8767.8658    525.86616   -7861.9281   -490.39546 
   95800    282.14709   -8795.9393     564.7806   -7875.4043    688.74912 
   96000    279.44042   -8771.8628    528.01879   -7891.5024    1204.9732 
   96200    298.88557   -8787.2973    505.80519   -7904.6325   -395.41873 
   96400    290.76859   -8788.7336    523.08036   -7899.0282   -171.93216 
   96600     303.8201   -8793.7173    543.04448   -7867.5914    1397.4932 
   96800    309.73855   -8788.0504    545.09842    -7852.408   -705.84444 
   97000     305.7438   -8786.1069    542.91978   -7857.6801   -444.53604 
   97200    301.12684    -8798.249     530.8149   -7887.7485    1549.1491 
   97400    284.17108   -8799.4953    527.64643   -7913.5424    417.02566 
   97600    300.31332    -8792.012    509.18679   -7904.1653     768.5973 
   97800    301.21787   -8803.8664    541.90589   -7882.1602   -657.90487 
   98000    302.65964   -8782.3225    532.05668   -7868.6475    369.48519 
   98200    307.44357   -8758.4525    507.84536   -7862.9569    276.30754 
   98400    307.00309   -8770.3166    521.66668   -7861.5551    538.19933 
   98600    297.86253   -8787.1935    515.50563   -7896.1181    750.45534 
   98800    286.79189   -8803.4582    532.55547   -7909.2918    796.16452 
   99000    287.73882   -8777.2212    522.22995   -7892.1864    43.187829 
   99200    294.42391   -8782.6387    542.52393   -7868.8808   -191.57994 
   99400    295.15531   -8778.8525    542.45466   -7864.2416    607.11115 
   99600    310.62885   -8772.5513    512.45554   -7868.4293    1168.8838 
   99800     300.7515   -8797.6017    528.03682   -7890.3525    96.197023 
  100000    289.85896   -8793.4732     513.0156   -7914.9794    909.20245 
  100200    295.63059   -8797.8719    529.26172   -7895.8547    1057.4004 
  100400    306.10419   -8781.5743    540.19083    -7855.422   -265.67849 
  100600    304.82899   -8791.0894    547.32691   -7859.4089   -93.287884 
  100800    293.58476   -8785.9492    534.50809   -7881.2652    336.34802 
  101000    300.90903   -8795.5508    520.33783    -7895.802    507.93312 
  101200    292.35718   -8786.1919    536.30092   -7881.2628   -580.47523 
  101400    316.39993   -8769.0957    524.85269   -7845.2998    1916.7348 
  101600     309.2681   -8784.6011    539.90661   -7854.7437    744.81157 
  101800    303.72451   -8785.3775    530.04526   -7872.3713    636.82961 
  102000    288.64828   -8773.2758    522.94553   -7886.3786    671.80494 
  102200    293.84481   -8789.9084    526.52048   -7892.8841    -220.9942 
  102400    298.13372    -8791.339    555.04584   -7860.3816   -205.77444 
  102600    318.24815    -8770.952    533.61223   -7836.0662   -288.57704 
  102800    313.78633   -8792.9139    544.66238   -7852.6038    1041.1694 
  103000     282.0175   -8776.6831    537.31897   -7883.7732    950.15728 
  103200    298.44357   -8762.2283    502.90128   -7883.0247    1123.6038 
  103400    294.28549   -8785.8138    542.53246   -7872.2219   -186.29517 
  103600    307.42711   -8781.9512    528.70314   -7865.6185    434.20452 
  103800    318.74712   -8798.8358    548.34423   -7848.5888    118.89053 
  104000    307.35535   -8773.9094     536.8096   -7849.5608    439.99133 
  104200    305.94554    -8796.541    530.69687   -7880.0827   -126.77853 
  104400    285.73472   -8764.3113    514.49341   -7889.5399    827.93366 
  104600    296.90961   -8779.9103    524.79463   -7880.7475    163.73498 
  104800    320.41627   -8786.9495    541.62309   -7841.3191    158.33194 
  105000    332.54135   -8784.1978    531.43486   -7833.4673    969.10127 
  105200    291.53105   -8793.8051    570.14192   -7856.0768    24.113899 
  105400    307.49594   -8773.9706    517.49775   -7868.7565    576.39323 
  105600    287.25869   -8793.1771    552.42016   -7878.5575    511.15942 
  105800    305.48565   -8791.4374    524.66187    -7881.594    940.94837 
  106000    296.02671   -8769.5157    516.24017   -7880.0206    918.99395 
  106200    303.48247   -8773.6763    526.59324   -7864.4273    362.54357 
  106400    323.76608   -8801.1651    546.03804    -7846.896    811.88575 
  106600    300.23675   -8800.5665    565.07635   -7856.9268   -49.206612 
  106800    295.14864   -8779.4152    517.73532   -7889.5321    276.12268 
  107000    275.50075   -8805.7897    554.86569   -7903.5499   -798.63068 
  107200    290.47062   -8788.1128    528.16523   -7893.6982    1051.4681 
  107400    293.70987   -8798.9055    551.11624   -7877.4555   -1197.4115 
  107600    303.66038   -8773.7268    521.04369    -7869.803    272.86177 
  107800    307.63146   -8804.3496    546.33583   -7870.1266    492.10657 
  108000    309.42572   -8798.9014    533.86258   -7874.8893    107.26584 
  108200    290.70357   -8787.1785    519.48179   -7901.1536    308.97022 
  108400     283.1257   -8796.4036    526.37567   -7913.0396    183.33479 
  108600     285.1608   -8772.4509    528.00458    -7884.892    1554.9788 
  108800    296.55772    -8784.587    548.95125   -7861.7113    496.63193 
  109000    313.21342   -8770.7984    518.72323   -7857.1498    457.63783 
  109200    307.48084   -8785.4347    529.09614   -7868.6414     871.3302 
  109400    278.14499   -8774.2047     521.2269   -7902.2697    1196.6691 
  109600    282.98401   -8778.6171    510.27441   -7911.5331    107.46474 
  109800    302.87462   -8773.2551    511.16271    -7880.203    969.34637 
  110000    298.58916   -8785.1907    547.15687   -7861.5479      809.868 
  110200    309.06903   -8781.6611    526.76598   -7865.1953     622.1976 
  110400    298.67655   -8773.2582    517.22616    -7879.436    123.54577 
  110600    277.34381   -8790.3092    547.63723   -7892.9739   -70.235871 
  110800    297.25414   -8794.1103    533.79783   -7885.5098    913.22146 
  111000     309.1408   -8774.2253    532.83571   -7851.5994    731.79663 
  111200    326.21378    -8785.951    529.16085   -7845.4729    373.92927 
  111400    314.12684   -8788.7072    530.01015   -7862.6199   -31.864504 
  111600    288.88533   -8771.1696    525.61723   -7881.3018    949.60104 
  111800    290.78946   -8771.6216    523.58362   -7881.3866   -340.73122 
  112000    299.19837    -8795.097     544.8785   -7872.9645    567.60649 
  112200    311.90259   -8769.8386    512.03893   -7864.5272    1438.0848 
  112400    305.17678   -8789.0069    539.46946   -7864.7453    331.72386 
  112600    294.56419    -8795.498    542.15226   -7881.9348   -671.29398 
  112800    282.15668   -8771.2356    514.41157   -7901.0576     1478.717 
  113000    294.84117   -8801.9439    531.45479    -7898.729   -483.17305 
  113200    301.01526   -8779.3656    538.13385   -7861.6868   -518.99082 
  113400    321.50107   -8788.7309    539.69446   -7843.6614    906.41336 
  113600    294.02693   -8770.8406    541.51153   -7858.5956    969.82401 
  113800    301.56827   -8774.2998    518.84161    -7875.216    246.66862 
  114000    299.87232   -8779.9183    511.72615   -7890.0884    410.99099 
  114200    279.41964   -8793.1594    532.83269   -7908.0113    867.09064 
  114400    271.86331    -8793.515    527.46546   -7923.2618    510.21832 
  114600    291.31533   -8793.1967    531.62823    -7894.254    244.87411 
  114800    307.46165   -8768.3849    510.24113   -7870.4707    600.70199 
  115000    307.70407   -8796.8918    547.63406    -7861.279    611.37514 
  115200    306.93199   -8783.5812    538.61168   -7857.9643   -434.73198 
  115400     307.5033    -8786.962    529.58117   -7869.6553    70.330592 
  115600    303.45025   -8813.6964    531.17822    -7899.903   -117.90553 
  115800    277.00923   -8804.7214    556.34625    -7899.099    331.49558 
  116000    297.69188   -8785.7067      540.842   -7869.5102   -792.35277 
  116200    308.52242   -8775.3297    531.20922   -7855.1099   -1154.8998 
  116400    286.80733   -8789.5701    564.92775    -7863.012    1268.6558 
  116600    303.16057   -8787.5366    536.01824   -7869.2684   -603.53036 
  116800    291.77591   -8795.5956    551.49926   -7876.2011   -179.51307 
  117000    292.94598   -8794.8787    535.29028   -7890.2179    570.19187 
  117200    293.85838   -8806.5618    522.42536   -7913.6155    796.51593 
  117400    277.83944   -8788.6798    531.72378    -7906.633    153.47738 
  117600    296.55889   -8783.4312     537.8041   -7871.7012   -363.28764 
  117800    305.05796   -8787.6763    546.86511   -7856.1689    264.95671 
  118000    299.37435   -8789.2265    553.85526   -7857.8953    779.96451 
  118200    284.73324    -8782.216    544.87405   -7878.3268    1044.9096 
  118400    286.45846   -8790.5292    518.20436   -7911.1343   -233.10705 
  118600    277.24682    -8806.044    536.68338   -7919.7849    601.53342 
  118800     301.6625   -8785.4726    532.99978   -7872.1118   -26.697756 
  119000     313.2954    -8769.969    511.77326    -7863.167     308.6452 
  119200     298.6031   -8779.2253    534.93003   -7867.7918    1408.2458 
  119400    280.62769   -8774.6759    536.37327   -7884.4641    210.09942 
  119600    290.53573   -8786.1892     528.8148   -7891.0429     560.2303 
  119800    307.37378   -8786.3203    520.03894    -7878.719    884.81338 
  120000    302.71445   -8789.3644    558.15484   -7849.5222   -288.87414 
  120200    305.68462     -8789.66    567.19895   -7837.0286   -380.37506 
  120400    308.17389    -8786.373    531.43812   -7866.3638   -57.765647 
  120600    294.67429   -8780.5668    519.81891   -7889.1982    746.38732 
  120800    296.66161   -8772.0366    512.37333   -7885.6078    586.94932 
  121000    295.98515   -8782.0204    540.04412   -7868.7737    436.22264 
  121200    309.44473   -8778.9139    538.22317   -7850.5173    226.11775 
  121400    296.12995   -8780.0273    554.71387   -7851.9283   -168.18913 
  121600    292.77623   -8783.8712     525.8809   -7888.8339    118.42602 
  121800    277.84995   -8786.2901    532.29684   -7903.6571   -637.83581 
  122000    296.41966   -8792.9784    533.32128   -7885.9068   -542.75986 
  122200    300.61146   -8753.3428    509.46871   -7864.8384    1166.8249 
  122400    310.10595   -8805.1849    552.07474    -7862.103   -23.567308 
  122600    312.04035   -8776.1488      513.533   -7869.1695    1597.2027 
  122800    312.79913   -8774.5552     505.7574   -7874.3948    831.43081 
  123000    297.01508   -8789.8088    526.99554   -7888.3121   -700.84269 
  123200    283.57646   -8761.9932    492.73546   -7911.7011     701.8895 
  123400    273.79121   -8797.1214    537.54547   -7914.3574   -171.40374 
  123600    293.44789   -8776.2888    530.71252    -7875.573    249.20297 
  123800     312.2891   -8788.4201    535.26505   -7859.3952    1592.2257 
  124000    284.63778   -8778.4462    551.25391   -7868.2975    578.49742 
  124200    303.08085   -8778.7997    511.71538   -7884.9349   -156.04095 
  124400    273.53339   -8767.4667    510.95884   -7911.6144   -463.85592 
  124600     299.6796   -8802.2065    510.84853   -7913.4972    367.31955 
  124800    299.99405   -8806.7873    562.14182   -7866.3882   -546.46463 
  125000    319.40744   -8799.4608    541.70429   -7855.0212   -144.94018 
  125200    294.23206   -8772.7089    531.65789   -7870.0589    568.05124 
  125400    283.57478   -8779.5055    531.56202   -7890.3889    569.20476 
  125600    304.27364   -8769.2163    487.03795    -7898.525    1375.9057 
  125800    300.38259   -8767.3346    502.16423   -7886.4232    588.64306 
  126000    311.57238    -8788.906    544.86544   -7851.1844   -673.17272 
  126200    301.67571   -8802.9158    582.36759   -7840.1706    83.129519 
  126400    295.20726   -8774.9442    538.66318   -7864.0593    440.97558 
  126600       289.45   -8770.1988    516.47442   -7888.7619    2.2342486 
  126800     297.7263   -8788.5026     524.8612   -7888.2435    473.05188 
  127000    288.82188   -8764.7688    523.93652   -7876.6618    435.58083 
  127200    312.88711   -8804.1268    554.03632   -7855.5765   -555.13608 
  127400    309.13693   -8770.7941    549.26128   -7831.7475    481.46013 
  127600     323.3201    -8772.258    552.31348   -7812.2758    725.82401 
  127800    303.15789   -8759.0795    522.62745   -7854.2055    685.07473 
  128000    306.52753   -8764.1437    501.59315   -7876.0553    587.35096 
  128200    290.46455   -8807.3328    555.42046   -7885.6707   -1146.8262 
  128400    295.36184   -8785.3911     525.5087   -7887.4657    547.11182 
  128600    304.48476   -8797.4597    545.57067   -7867.9695    226.30591 
  128800    307.58228   -8776.9989    549.48098   -7839.6927   -353.08723 
  129000    310.48973   -8767.4352    536.58173   -7839.3624    556.09107 
  129200    296.37165   -8778.5064    524.32923   -7880.4873    1199.4806 
  129400    299.18059   -8758.7125    490.31027   -7891.1706    370.63912 
  129600    287.46817   -8796.1542    553.01216   -7880.6784   -727.77507 
  129800    288.41094   -8770.3225    543.36071   -7863.3095    1437.8192 
  130000    301.85976   -8786.3938    563.82318   -7841.9609   -827.51373 
  130200    331.54523   -8814.2782    567.30924   -7828.9293   -1367.8263 
  130400    294.84488   -8760.7138    520.40461   -7868.5444    864.79179 
  130600    294.87394   -8795.5229    536.31735   -7887.4041   -194.80392 
  130800    296.96023    -8784.231    525.82148   -7883.9775   -437.54383 
  131000    316.02441   -8790.2037    526.09014   -7865.6439    864.56049 
  131200     305.8316   -8815.5724    577.94554   -7852.0091   -305.47912 
  131400    316.31522   -8773.0375    523.39278   -7850.8083    -405.2381 
  131600    292.79743   -8806.1457    555.33872   -7881.6238   -659.22038 
  131800    290.63782   -8799.0043     529.8931    -7902.651   -245.27553 
  132000    283.03467   -8779.2949    528.25979   -7894.1617     116.0499 
  132200    292.41606   -8768.1524    533.44414   -7866.0059    739.54107 
  132400     302.4219   -8785.4826     555.1765   -7848.9876   -1227.5963 
  132600    307.53212   -8797.6505    552.66904   -7857.2196   -193.92193 
  132800    309.44899   -8759.6193    493.75591   -7875.6845    2889.7861 
  133000     288.3103   -8786.7125    533.08345   -7890.1036   -1323.6174 
  133200    294.31494   -8802.2085    550.07394   -7881.0379   -911.48481 
  133400    323.21077   -8753.4633    505.12472   -7840.8077    2122.2215 
  133600    307.08238   -8791.1306     571.8635   -7832.0722   -1510.6157 
  133800     305.1948   -8763.1119    518.60351   -7859.6936   -322.90114 
  134000    296.81899   -8779.2944    528.37404   -7876.6664    1887.1433 
  134200    305.61616   -8803.3751    536.08662   -7881.9424    533.19066 
  134400     295.5129   -8781.8482    525.79518   -7883.4459   -2288.6026 
  134600    288.41385   -8780.8044    565.54251   -7851.6059    435.22882 
  134800    329.51288    -8775.385    533.20178   -7826.7062    172.08939 
  135000    312.94957   -8781.7243    540.17081   -7846.9608    324.30876 
  135200     304.2256   -8756.3987    509.39764   -7863.4083    2077.5054 
  135400    299.52868   -8785.1692    528.60081   -7878.8979     598.0776 
  135600    289.48187   -8797.8346    535.44035   -7897.3916    751.66114 
  135800    281.39598   -8763.4401    514.41576   -7894.2171    446.03813 
  136000     305.6043   -8790.9047    559.46145   -7846.1121   -1702.4235 
  136200    324.97854   -8789.6656    535.50374   -7844.4021    237.86502 
  136400    291.12683   -8766.2016    525.86917   -7873.2557    1552.8576 
  136600    291.57033    -8781.628     530.5153   -7883.4767   -621.73984 
  136800    308.10795   -8782.4718     515.9055   -7878.0784   -885.89585 
  137000    303.62921   -8776.6736    540.67379   -7853.1591     1934.206 
  137200     312.2035   -8763.3717    546.03434   -7823.6854   -911.41345 
  137400     321.0196   -8796.8586    554.87816   -7837.2124   -1491.6981 
  137600    295.92845   -8777.8564    531.75582   -7872.9696    2372.3023 
  137800    291.66427   -8800.6614    546.67896   -7886.2281   -362.18006 
  138000    277.63475   -8811.3315    572.06576   -7889.2009   -1642.9564 
  138200    302.54913   -8760.0639    509.01657   -7869.5684    978.03393 
  138400    318.48597   -8789.8683     550.1703   -7838.1246   -426.29428 
  138600    299.70155   -8761.0499    542.16152   -7840.9999   -264.63375 
  138800    311.95027   -8784.1099    530.94107   -7859.8361    1297.9957 
  139000    296.95427   -8797.8982    552.10469    -7871.369   -356.06254 
  139200    294.53845   -8781.3253    531.45243   -7878.4944   -420.26497 
  139400    303.97096   -8805.3149    535.95201   -7886.0911    164.17985 
  139600    286.93004   -8782.7673    519.45823    -7901.524   -138.73154 
  139800    290.98722   -8809.9979    541.95013    -7901.147    -845.1164 
  140000    304.27831   -8784.6197    530.06446    -7870.896    1819.1118 
  140200     312.7047   -8756.1826    505.88575    -7856.013    1225.0455 
  140400    295.10352   -8804.0277    564.54379    -7867.393   -1657.2415 
  140600    294.11903   -8765.4382    508.56979   -7886.0188    1193.8106 
  140800    283.42156   -8805.0932    525.80157   -7921.9303   -235.34906 
  141000    294.86149   -8799.5026    508.23185    -7919.485    -1368.021 
  141200     288.8994   -8772.6463    519.26482   -7889.1132    742.36969 
  141400    301.47872   -8800.8358    547.98635   -7872.7202    1252.1739 
  141600    291.77419   -8779.4729       539.42   -7872.1598   -1189.2542 
  141800    314.73819   -8785.2422    521.18023    -7867.214    121.73235 
  142000    311.37479   -8782.0691    544.81987   -7844.6422    1046.4914 
  142200    302.43883   -8783.1011    558.90313   -7842.8581   -783.95522 
  142400    305.40184   -8798.6113    530.61057   -7882.9249   -249.25491 
  142600    282.16479   -8774.0737    526.34207    -7891.955   -498.43467 
  142800    304.88961   -8803.8309     546.6093   -7872.7916   -793.50405 
  143000    312.38734   -8792.5096    536.46151   -7862.1643    14.249164 
  143200    317.28367   -8779.3436    510.60663   -7868.6795      1478.74 
  143400    280.77738   -8815.4573    551.19933   -7910.2306    -1303.224 
  143600    300.38788   -8777.8923    495.72058   -7903.4179    541.96423 
  143800    279.07487   -8784.4788    552.89513    -7879.703    318.67382 
  144000    300.65648   -8791.5705     550.2171   -7862.2609   -1337.1437 
  144200    321.16623   -8784.5034    520.80788   -7858.7426    1039.2628 
  144400    311.10015   -8800.2418    530.83502    -7877.146   -186.88343 
  144600    276.09269   -8798.8471    528.21728   -7922.5094   -1051.9916 
  144800    277.44984   -8784.4999    507.55805   -7927.1102    1061.1756 
  145000     295.3003   -8796.0739    518.86146   -7904.8734    754.75229 
  145200    302.82358   -8789.6765    524.38837   -7883.4631   -566.87653 
  145400     305.1687   -8782.8414    531.81189   -7866.2476   -528.78512 
  145600    311.08134   -8794.6346    547.64183   -7854.7557   -989.83209 
  145800    308.34897    -8804.796    547.13224   -7868.8719   -29.686826 
  146000     285.9869    -8808.211    536.91964   -7910.6954   -289.04291 
  146200    272.84966   -8772.7728    522.75965   -7905.9817    40.808784 
  146400    306.77476   -8796.7217    532.56333   -7877.3514   -1568.1124 
  146600     290.9281   -8773.9484    546.76347   -7860.3588    447.32154 
  146800    303.24211   -8781.2277    536.52646   -7862.3485    24.623426 
  147000    312.83254   -8796.8711    524.09423   -7878.3318    355.04324 
  147200    301.17509   -8788.7556    511.64858   -7897.3606    1099.8493 
  147400    283.11217   -8801.4474    548.89639   -7895.5798   -645.07434 
  147600    272.86338   -8774.4127    544.93836   -7885.4256   -1754.0361 
  147800    309.68145   -8772.4302    515.79327    -7866.165    1400.7528 
  148000    315.74357   -8787.9705    525.59989    -7864.255    740.34658 
  148200    306.19904   -8821.7165    557.82714   -7877.8083   -2144.5395 
  148400    298.04403   -8785.4992     505.8388   -7903.8619    1271.5966 
  148600     283.8726   -8777.5059    513.94857   -7905.6273     212.5999 
  148800    299.51388   -8795.9999    549.34326   -7869.0048   -1024.5522 
  149000    304.43722   -8761.7982    525.61841   -7852.3202    733.22036 
  149200    304.64636   -8770.5469     529.3128   -7857.1108    771.94692 
  149400    307.14951   -8816.3505    550.42614   -7878.6449   -1514.2553 
  149600    287.24288   -8798.2385    550.12573   -7885.9332    660.20601 
  149800    307.92369    -8785.959     515.9086   -7881.7948    848.84617 
  150000     294.0024   -8797.9872    546.47007   -7880.8146   -2603.2285 
  150200    298.47141   -8775.6287    531.70844   -7867.5828    1583.2049 
  150400    303.35059   -8762.5507    553.17021   -7826.8909    234.54115 
  150600    330.11231   -8807.1011    565.60676   -7825.2614   -2436.2155 
  150800    307.10104   -8790.3799    548.08184   -7855.0797    1188.6021 
  151000    308.86479   -8797.3753    534.99108   -7872.9419    60.240565 
  151200    277.58159   -8800.7518    561.57623   -7889.1778     -3253.14 
  151400    298.15831   -8753.6443    494.19162   -7883.5101     662.6882 
  151600    320.37408   -8773.8801    522.82008   -7847.1059    1329.6223 
  151800    317.24857   -8808.7343    577.35253   -7831.3685   -2475.7909 
  152000    313.49059    -8780.054    534.48521    -7850.294    1407.0382 
  152200    307.86812   -8787.8634     533.8387   -7865.8392    160.52844 
  152400    296.13235    -8828.324    570.39734   -7884.5386   -1347.0173 
  152600     288.5428   -8777.8533    519.48471   -7894.5499    649.46318 
  152800    297.38005   -8776.3772    518.22408   -7883.1917    358.50388 
  153000    302.55204    -8807.557    588.10696   -7837.9674   -2257.9141 
  153200    309.14704   -8771.2794    536.98269   -7844.4986    1046.4658 
  153400    304.49531   -8793.1067    540.00788    -7869.166    664.17185 
  153600    293.31298   -8777.3445    523.23698   -7884.2742    -1887.889 
  153800    295.68223   -8805.2235    546.10439   -7886.2985   -9.1612063 
  154000    308.10178   -8800.7347    527.36234   -7884.8922    977.51343 
  154200    318.67904   -8780.5707    516.62099   -7862.1328   -1538.6869 
  154400    306.66366   -8801.4387    569.99598   -7844.7758   -277.45051 
  154600    305.46455   -8778.4838    535.02191   -7858.3069    1762.0359 
  154800    309.96899    -8809.666    532.82943   -7886.0021   -1178.0876 
  155000    291.78034   -8787.3115     520.3494   -7899.0614   -881.17376 
  155200    296.05802   -8774.6199    516.93891   -7884.3866    1337.9763 
  155400    311.58879   -8823.9057    589.43398   -7841.5948   -693.81535 
  155600      324.591   -8765.2644    525.38825    -7830.605    432.28925 
  155800    306.90722   -8754.9049    512.29355   -7855.6373    354.30858 
  156000    301.56332    -8794.144    531.75717   -7882.1509   -1130.9141 
  156200     296.1973   -8793.4503    526.69442   -7893.2858     299.2136 
  156400    301.54624   -8771.3704    513.69928   -7877.4567    1969.9076 
  156600     320.2328   -8789.1962    539.39574   -7846.0245   -1681.1233 
  156800    304.41834   -8805.6426    572.72639   -7849.0804   -162.95811 
  157000    318.86123   -8775.9765    509.14668   -7864.7832    1879.7591 
  157200    312.55047   -8774.7382    506.81574    -7873.833   -1570.2517 
  157400    301.02902   -8799.9383     543.1971   -7877.1789   -337.54754 
  157600    298.56443   -8780.3291    534.11765   -7869.7567    2417.3666 
  157800      300.732   -8795.5483    558.45681   -7857.9037   -872.86222 
  158000    316.59634   -8802.4696     549.1702   -7854.1085    158.88547 
  158200    294.30334    -8772.609    525.95547   -7875.5716    1265.1702 
  158400    280.84305   -8800.4001     550.1165   -7896.1735   -1996.5641 
  158600     299.5231   -8785.6711     516.6189   -7891.3887    570.81753 
  158800    312.53808   -8779.3253    523.07351    -7862.178    1492.6664 
  159000    315.39641    -8836.081    600.78756   -7837.6156   -1512.6387 
  159200    306.85624   -8774.8435    534.84387   -7853.0899    274.14208 
  159400    298.06673   -8781.8472    527.87848   -7878.1415    517.18754 
  159600    269.29617   -8792.7807    568.41362   -7884.8162    -2308.754 
  159800    318.14191   -8788.7748     512.5803   -7875.0549   -217.59931 
  160000    300.97547   -8791.4813    545.84545   -7866.1411    1257.6394 
  160200     297.7811    -8802.136    561.62377   -7865.0452   -1148.9327 
  160400    303.53731   -8792.3233    525.06937    -7884.529    477.15798 
  160600    280.50977   -8779.4578      524.976   -7900.7919    313.72175 
  160800    311.59275   -8775.4052    498.69067   -7883.8326    -1597.015 
  161000    299.44077   -8782.0075    547.56485   -7856.8829    30.011061 
  161200    317.48931   -8787.9521    534.68214   -7852.9532    1574.5794 
  161400    317.36255   -8809.7449    548.90213   -7860.6858   -1435.2751 
  161600    308.41014    -8794.266    529.47952   -7875.9175    162.15639 
  161800    297.42628     -8784.55    531.28958   -7878.2408    2006.8099 
  162000    300.85525   -8789.5597    529.31984   -7880.8967   -121.19426 
  162200    294.97165   -8784.6651    531.13593   -7881.6046   -126.28051 
  162400    300.79809     -8776.57    520.17599   -7877.1229     1607.041 
  162600    303.46287    -8810.907    572.00988    -7856.266   -1212.5807 
  162800    314.35921   -8766.9362    534.35063   -7836.2155    794.75701 
  163000    312.32964   -8743.9603    496.96879   -7853.1805    1945.6262 
  163200    301.61213   -8814.9531    547.00371   -7887.6519   -1257.3394 
  163400    300.66374   -8774.0245    502.63592   -7892.2869    891.19007 
  163600    305.19778    -8773.456    508.87486   -7879.7625     1731.614 
  163800    299.81615   -8799.1571    558.77529   -7862.3488   -721.81622 
  164000    306.00393    -8767.955    541.34433   -7840.7756    572.58845 
  164200    317.46178   -8765.3496     552.0969   -7812.9707    1020.5522 
  164400    308.07743   -8779.5748    559.84723   -7831.2781   -2188.5238 
  164600    307.72625   -8793.0398    535.01593   -7870.0172    57.683054 
  164800    301.06424   -8775.9514    515.52505   -7880.8197    2385.0755 
  165000    298.19252   -8818.0874    558.62686   -7883.4748   -1666.7495 
  165200    322.88672   -8788.1395    506.20762   -7874.8097    443.55442 
  165400    324.71609   -8777.4368    519.68283   -7848.3251     1504.786 
  165600    303.11574   -8804.1087    584.48475   -7837.4306   -1858.6901 
  165800     306.0676   -8765.9166    509.94542   -7870.0559    3.1370905 
  166000    291.30302   -8787.9095    526.39649   -7894.2141     2069.117 
  166200    280.34352   -8798.2695     555.0569   -7889.7323   -1325.8428 
  166400     300.8769   -8785.7811    538.31456    -7868.096    675.41785 
  166600     296.0038   -8748.5608    519.87585   -7855.4589    2234.0964 
  166800    301.26718   -8795.1656     555.0124   -7860.2906   -713.31832 
  167000    301.01345   -8801.6579    526.74357   -7895.3717   -339.33255 
  167200    295.83714   -8776.2121    502.51126   -7900.6849     1960.599 
  167400    286.33561   -8807.3703    560.87643   -7885.4583    -1287.869 
  167600    298.86821    -8777.936    546.58825     -7854.51    710.62723 
  167800    322.24566    -8792.318     537.0142   -7848.9899    877.72386 
  168000    302.63832    -8786.776    539.60247   -7865.5821   -1215.0735 
  168200    315.66733   -8790.6547    519.96864   -7872.6666     1012.736 
  168400    277.99844   -8766.9436    535.49865   -7880.9216    1156.6831 
  168600    310.18957   -8817.2175    545.12058   -7880.9843    -785.2386 
  168800    289.06989   -8773.1253     551.3955   -7857.2466    1145.9798 
  169000    315.37382   -8765.8968     540.2293   -7828.0181      1563.21 
  169200    307.58652   -8799.2566    567.62508    -7843.801   -1928.4925 
  169400    308.16021   -8756.8108    495.11039   -7873.1465    1150.6412 
  169600    292.12936   -8812.5201    563.66093   -7880.5184   -82.747679 
  169800    279.74261    -8787.715    556.99889   -7877.9935   -753.26417 
  170000    310.56281   -8812.8394    565.18748   -7856.0687   -376.94843 
  170200    316.68373    -8774.476    546.08364   -7829.0914    955.97909 
  170400    314.72931   -8786.2616    549.83202   -7839.5928   -148.37327 
  170600    286.90933   -8775.8141    530.38321   -7883.6719    294.00607 
  170800    296.70264   -8777.6045    517.39005   -7886.1072    877.99282 
  171000    304.69901    -8804.137    548.92112   -7871.0262    -209.0803 
  171200    317.18085   -8804.6718    549.72657   -7855.0174   -276.50552 
  171400     310.3397   -8799.3757    552.71267   -7855.3611   -310.85065 
  171600    287.41744   -8793.4457    553.28429   -7877.7618   -1231.8586 
  171800    279.12943     -8776.17    523.50099   -7900.7195    1766.5415 
  172000    303.56693   -8775.6661    495.76004   -7897.1438    1785.8219 
  172200    310.40284   -8801.8055    542.09022   -7868.3338   -977.44822 
  172400    329.05704   -8811.8105    558.17228   -7838.7359    615.77333 
  172600    296.65396   -8786.7247    559.75659   -7852.9223    569.34018 
  172800    306.85205   -8792.6554    532.64515   -7873.1058   -1189.3443 
  173000    296.85191   -8793.9304    541.80479   -7877.8302   -583.93575 
  173200    294.32771   -8788.1392     534.1681   -7882.8584    1066.2029 
  173400    290.81963   -8808.2898    536.03552   -7905.5649   -192.63155 
  173600    286.04281   -8796.6593    518.47965   -7917.5132   -547.03193 
  173800    291.98111   -8795.0174    535.54583   -7891.3177    861.43751 
  174000    304.21093   -8801.6611    551.53688     -7866.55   -199.74291 
  174200    310.95529   -8782.5153    528.32041   -7862.1168   -378.96852 
  174400    305.25193   -8768.8209    520.95953   -7862.9745    929.27209 
  174600    303.48385   -8799.5952    542.25229   -7874.6854   -199.93648 
  174800    274.33291   -8768.4617    513.05168   -7909.5085     1273.222 
  175000    292.37845   -8780.0822    508.08186   -7903.3455    178.92054 
  175200    297.08164   -8784.4532     537.4586   -7872.4096   -96.097851 
  175400     311.5298   -8782.4696    527.18432   -7862.4828    1089.3627 
  175600    302.80266   -8784.6521    533.90856   -7868.9449    470.59477 
  175800    306.81262   -8785.5656    521.83688    -7876.874    287.16166 
  176000    288.44355   -8796.3389    532.33072   -7900.3147    1291.5896 
  176200    277.63216    -8784.037    518.27384   -7915.7016    1060.2501 
  176400    293.71485   -8797.7796    539.03348   -7888.4062   -495.44886 
  176600    306.76529   -8782.8842    532.30522    -7863.784    831.33838 
  176800    299.26618   -8784.1541    542.51581   -7864.2988    316.09335 
  177000    293.82277   -8786.9822    544.81362   -7871.6925   -300.02048 
  177200    298.96102   -8771.2752    509.55473   -7884.7657    1030.7623 
  177400    281.00118   -8782.9948    517.82133    -7910.864    1444.1387 
  177600    293.74544   -8797.1901    521.70112   -7905.1104   -1.3886305 
  177800    304.59037   -8770.4955    517.78464   -7868.6581     530.8312 
  178000     297.0567   -8769.2125    534.54113   -7860.1177     949.5186 
  178200    310.32771   -8785.7138    525.27044   -7869.1565    651.32154 
  178400    294.89647   -8781.3987    523.19928   -7886.3696    650.56453 
  178600    277.30595   -8782.7294    529.14098   -7903.9382    1139.4209 
  178800    286.99765   -8786.7086    514.14562   -7910.6926   -295.97895 
  179000    283.12566    -8790.884    557.80236   -7876.0935    247.21312 
  179200    307.61643   -8786.4425    541.70022   -7856.8741    599.41621 
  179400    299.02554    -8786.634     544.8227   -7864.7752   -500.24087 
  179600    306.80134   -8807.4497    540.35777   -7880.2514   -229.84023 
  179800    288.55332   -8769.2074    494.82438   -7910.5512    1293.2078 
  180000    260.97958   -8804.1144    551.94932   -7923.1005   -601.34286 
  180200    296.85035   -8807.0683    548.58256   -7884.1923   -686.83218 
  180400    302.80575   -8781.2689    531.79746    -7867.669    2026.6245 
  180600    287.08674   -8781.0926      549.271   -7869.8389   -387.49378 
  180800     296.7789   -8796.7284    546.25168   -7876.2734    -773.0504 
  181000    283.68464   -8771.8292    526.11432   -7888.0218    1810.5635 
  181200    293.65287   -8776.9905    507.07391   -7899.6548    822.06942 
  181400    298.87097   -8808.3856    533.76958   -7897.7748   -366.61602 
  181600    307.68599   -8783.8802    528.20788   -7867.7164    896.98935 
  181800    319.00917     -8775.48    521.39873   -7851.8482    64.019919 
  182000    298.25609   -8797.8903    559.80875   -7862.0156   -1025.4003 
  182200    276.93675   -8784.6113    540.68952   -7894.7371      246.515 
  182400    296.07281   -8794.1023    507.63672   -7913.1525    582.94013 
  182600    284.59286   -8786.7398    523.25733   -7904.6443   -91.918961 
  182800    300.35462   -8787.8402    523.57574   -7885.5526    742.24079 
  183000    294.19769   -8794.6214    554.54292   -7869.1297    509.65409 
  183200    299.39643   -8789.0396    553.53206   -7858.0038   -993.80778 
  183400    306.46095    -8780.754    524.01613   -7870.3266    619.38164 
  183600    259.55356   -8778.1091     545.4025     -7905.44    190.69657 
  183800    307.75499   -8805.1291    519.15636   -7897.9299    424.44391 
  184000    303.02889   -8772.5627     520.6896   -7869.7892    1322.1329 
  184200    300.30815   -8789.1471    547.50513   -7862.9887    595.75512 
  184400    301.77046   -8789.3216    540.14264   -7868.6818   -622.72877 
  184600    282.93516   -8767.8172    539.72858   -7871.3406   -633.92787 
  184800     305.7735   -8798.5766    543.24911    -7869.783   -366.16926 
  185000    284.77464   -8781.6782    535.25221   -7887.3586    728.49116 
  185200    289.49088   -8789.3121    510.99082   -7913.3073    1816.7442 
  185400    290.64925   -8778.2051    501.01747    -7910.713   -242.88587 
  185600    310.74483   -8813.1755    545.09126   -7876.2715   -668.38648 
  185800    308.77999   -8797.1107    540.83815   -7866.9372    890.46228 
  186000    296.80713   -8774.7224    533.88821   -7866.5953   -1327.3929 
  186200    302.82789   -8804.1537    551.87429   -7870.4489   -598.02012 
  186400    298.92631   -8776.0681    501.36029   -7897.7968    2606.9502 
  186600    290.06567   -8806.6383    522.06371   -7918.8358   -289.57701 
  186800    296.64374   -8785.1177    513.51325   -7897.5715   -63.933238 
  187000    288.61497   -8758.4719    522.07586   -7872.4864    897.19066 
  187200    317.15603    -8800.117    533.94051     -7866.28    277.73014 
  187400    288.03439   -8782.3324    548.56781    -7870.587   -742.34952 
  187600    282.11671   -8757.6966    517.44672   -7884.5338    579.76166 
  187800    296.96012   -8798.3379    530.08055   -7893.8255    467.30927 
  188000    283.73569   -8771.9846    524.21854   -7890.0087   -1660.8712 
  188200    304.67152   -8755.2339    509.77164   -7861.3072    514.56072 
  188400    318.97853   -8800.6945    553.72316   -7844.7768    348.02099 
  188600    312.31731   -8775.2978    520.59406   -7860.9082     479.2681 
  188800    277.84887   -8797.8886    554.87324   -7892.6805    800.88608 
  189000     299.0167   -8789.5823    521.00999   -7891.5473   -716.49796 
  189200    290.73889   -8785.7135    537.83088    -7881.295   -62.526655 
  189400    302.51798   -8771.3834    529.51718   -7860.4266    847.16244 
  189600    302.86403   -8762.7085    523.92581   -7856.9067    181.53863 
  189800    304.91842   -8786.8058    533.44501   -7868.8944    527.62017 
  190000    274.55193   -8754.5967    506.41968   -7901.9993     3046.104 
  190200    282.96011   -8788.5175     527.8057   -7903.9323   -64.918078 
  190400    288.07372   -8772.1117    534.73768   -7874.1469   -461.51914 
  190600    308.97864   -8765.8598    518.10527   -7858.1688    1900.5596 
  190800    313.64145   -8771.6001    513.40496     -7862.73    937.15249 
  191000    293.99418   -8748.3505    505.28984   -7872.3685    672.61856 
  191200    297.17472   -8758.7857    500.34145   -7883.7418    1400.0617 
  191400     281.4764   -8778.2091    506.62231   -7916.6781    1299.9549 
  191600    279.34222   -8800.2092    531.04994   -7916.9415    561.42993 
  191800    299.95964   -8762.2239    504.94801    -7879.062    616.30151 
  192000    297.87512   -8785.6575    549.36427   -7860.7076   -387.25597 
  192200    294.50403   -8783.8015    549.16944    -7863.297    1114.6858 
  192400    285.09544   -8773.1974    532.90285   -7880.8226   -214.76025 
  192600    308.92721   -8792.4782     509.1065   -7893.8507    164.10976 
  192800    288.07099   -8764.5313    502.47696   -7898.8306    1305.0828 
  193000    305.80293   -8785.9389    522.52091   -7877.8364    1607.8978 
  193200    292.94211   -8754.4872    534.59207   -7850.5295   -98.877358 
  193400    319.42177   -8796.8432    546.64729   -7847.4425    125.48935 
  193600    297.78269   -8809.7314    561.72384   -7872.5386    696.12195 
  193800    293.91317   -8794.5628    519.29127   -7904.6815   -289.91064 
  194000    309.00752   -8793.6976     503.0016   -7901.0738   -104.61092 
  194200    281.42867   -8780.5502    538.14734   -7887.5543   -491.02973 
  194400    294.25518   -8783.5597    544.79293   -7867.7455    977.16678 
  194600     310.1749   -8788.6617    540.61139   -7856.9562   -118.24117 
  194800    306.62395   -8790.7453    535.85645    -7868.272    152.56345 
  195000    284.73383   -8798.7572    525.31537   -7914.4259    1094.3621 
  195200    274.31589   -8801.5924    541.37321    -7914.339    283.00548 
  195400    305.18085   -8786.9784    515.65477   -7886.5264   -834.68444 
  195600    286.36552   -8790.1351    560.89004   -7868.1718   -412.66486 
  195800    325.41124   -8782.2381    507.38485   -7864.5479    1140.2876 
  196000    303.78923   -8805.0191    538.04314   -7883.9334   -680.25147 
  196200    290.06244   -8767.0455    487.22215   -7914.0886    108.95272 
  196400    261.07541    -8785.917    523.79981   -7932.9318   -79.275472 
  196600     281.4312   -8779.1829    520.22815    -7904.103    1069.5742 
  196800    293.25537   -8783.2006    542.92038   -7870.5196   -552.76637 
  197000    308.53414   -8773.8982    532.36357   -7852.5093    348.87201 
  197200     304.4661   -8812.0943    566.67057   -7861.5277   -645.27843 
  197400    303.08615   -8805.5919    532.06509   -7891.3707    447.93333 
  197600    290.81553   -8775.1406    508.96509   -7899.4912    51.902725 
  197800    297.54986   -8800.4466    538.49861   -7886.7725   -801.16326 
  198000    304.62489   -8790.0524    539.31796   -7866.6382    803.88339 
  198200    286.56362   -8798.5331    573.35014   -7863.8599   -1053.6587 
  198400    287.68377   -8770.6369    540.81849    -7867.083   -754.64521 
  198600    305.98181   -8798.8212    544.30415   -7868.7099   -222.32717 
  198800     301.5129   -8804.8142    545.44776   -7879.1941   -259.95995 
  199000    284.42413    -8784.269    528.75704   -7896.8865    101.52451 
  199200    296.14369   -8772.4606    501.70458   -7897.3536    1882.9637 
  199400    303.87007   -8767.6727    516.83813   -7867.6901    1047.4739 
  199600    303.10428   -8808.2259    578.30357   -7847.7434   -1256.7474 
  199800    318.16011   -8769.9063    513.19394   -7855.5498    32.725217 
  200000    281.66708   -8777.9076    524.87454   -7897.8839   -10.374842 
  200200    280.68135   -8798.9245    542.17255   -7902.8457   -54.565146 
  200400    310.12591    -8781.895    507.77976   -7883.0828     292.2877 
  200600    303.88102   -8773.7535      525.956   -7864.6391    350.28153 
[...]
 1951400    306.73138   -8802.1613    550.38572   -7865.0234    251.34712 
 1951600    302.91678   -8780.2711    534.21613   -7864.1125    1280.7486 
 1951800    299.60114   -8779.1422    526.36615   -7875.0141   -767.47208 
 1952000    309.08681   -8804.7807    540.25892   -7874.7996   -908.94899 
 1952200    301.46722   -8784.5837    526.71865   -7877.7503    715.05688 
 1952400    290.24968   -8791.6684    544.58067   -7881.1169   -436.28313 
 1952600    282.54692   -8805.6541    574.09573   -7875.2998   -2310.7854 
 1952800    311.91498   -8782.0213    533.41704   -7855.3161    1247.3395 
 1953000    306.56541   -8785.7179    548.67235   -7850.5025     688.9445 
 1953200    294.07006   -8796.2905    543.90273   -7881.5999   -543.13058 
 1953400    287.40729   -8797.2915    535.93875   -7898.9659    848.05536 
 1953600    298.62707   -8790.7114    525.39713   -7888.7806   -344.40511 
 1953800    313.76166   -8812.9227    540.30954   -7876.9966   -698.73422 
 1954000    299.87176     -8774.26    521.92955   -7874.2274    375.17435 
 1954200    301.84404   -8817.0352    560.99426    -7875.451   -286.43699 
 1954400    302.21214    -8808.818    549.92178   -7877.8422    187.85516 
 1954600    314.95114   -8796.2005    522.67017   -7876.4139    658.10766 
 1954800     306.9105   -8786.9875     528.0036   -7872.0058   -965.59784 
 1955000    295.76909   -8784.3806    561.27633   -7850.1742   -1116.2775 
 1955200    319.91134   -8790.0248    559.54637   -7827.1078     1096.585 
 1955400    306.74135    -8781.071    536.94788   -7857.3583   -469.77689 
 1955600    299.13366   -8816.1126    558.44017      -7880.5   -1191.9891 
 1955800    300.88359   -8804.7405    541.23016   -7884.1314    738.28869 
 1956000    300.98655   -8773.3181    515.87393   -7877.9355   -88.921862 
 1956200    312.52311   -8805.0823    539.13957   -7871.8878   -1736.8869 
 1956400    318.30426   -8761.9722    504.72347   -7855.9044    797.56017 
 1956600    298.67308   -8794.8091     563.8147   -7854.4027    12.143999 
 1956800     307.6723   -8812.8185    548.60471   -7876.2751   -616.55152 
 1957000    284.08698   -8798.5797    540.28609   -7900.0932   -345.72302 
 1957200    304.59456   -8781.7041    501.57612   -7896.0699   -747.07185 
 1957400    322.13683   -8803.3341    544.48485   -7852.6725   -334.86356 
 1957600    296.09244   -8778.6404    556.69318   -7848.6094    122.58453 
 1957800    290.29646   -8772.0337    541.71012   -7864.2938   -383.57068 
 1958000     297.1752   -8802.9209    545.18117   -7883.0367    114.39933 
 1958200    294.87996    -8773.091    497.33016   -7903.9518    1563.9456 
 1958400    293.07352   -8794.9353    527.61738   -7897.7866    -166.7554 
 1958600     313.1209   -8749.1456    505.89075   -7848.4461   -779.53313 
 1958800    309.68102   -8786.1896    548.37268   -7847.3455     626.4742 
 1959000    288.15548   -8791.9459    556.73158   -7871.8841   -6.0487332 
 1959200    284.88324   -8783.1261    533.12012   -7890.8017    64.402401 
 1959400    305.11786   -8783.7531    510.08787   -7888.9474    1240.3931 
 1959600    309.81785   -8793.2372    547.65921   -7854.9341    268.89556 
 1959800     319.0512   -8760.1582    527.12145   -7830.7506    22.814087 
 1960000    295.26778   -8747.8676    527.35059    -7848.219    370.69322 
 1960200    307.27468   -8801.6264    542.97321   -7871.2159    12.813171 
 1960400    303.08605   -8802.2791    538.77162   -7881.3516    1279.5958 
 1960600    284.21423   -8780.6403    539.90939   -7882.3701   -197.89493 
 1960800    300.91053   -8774.1415    531.19138   -7863.5373   -641.63451 
 1961000    311.14226   -8772.4803    555.61989   -7824.5465     1041.095 
 1961200    308.23216   -8766.1423    545.35205   -7832.1456    738.86759 
 1961400    304.04882   -8767.9611    531.32602   -7853.2652    -287.9459 
 1961600    291.57273   -8793.2022    556.16269   -7869.4005    632.15856 
 1961800    290.02051   -8786.5671    536.66888   -7884.2164    1049.9951 
 1962000    285.46906   -8797.7013    543.00538   -7894.7529   -1581.5668 
 1962200    296.30753   -8770.4635    506.38743    -7890.467     -81.3151 
 1962400    318.07107   -8811.4188    550.20947   -7860.1591    290.57574 
 1962600    310.88235   -8797.6573    564.56568   -7841.1054   -545.89294 
 1962800    293.08961   -8764.7672    529.30937   -7865.9062    598.68483 
 1963000    291.95666   -8779.9739    526.27184    -7885.579   -256.09567 
 1963200    304.07712   -8800.7871    538.78049   -7878.6011   -361.56937 
 1963400    306.83442   -8799.8237     544.2619   -7868.6796    500.73464 
 1963600     291.2574   -8760.7636    533.12505   -7860.3972    949.84838 
 1963800    292.34296   -8809.5214    566.34481   -7874.5665   -835.99244 
 1964000    278.31377   -8783.3379    541.94875   -7890.4681    561.83454 
 1964200    299.86715   -8763.2938    490.98903   -7894.2074    575.75352 
 1964400    283.52866   -8816.0611    572.86107   -7885.7036   -1451.9061 
 1964600    322.40344   -8787.3763    528.15496   -7852.7085    694.48243 
 1964800    308.51281   -8768.8513    532.35527   -7847.4975    771.86378 
 1965000    312.92815   -8798.7266    537.88742   -7866.2735   -1112.9463 
 1965200    288.17323   -8804.0483    552.26761    -7888.428    566.16758 
 1965400    297.07842   -8788.9858    527.64967   -7886.7551    785.49419 
 1965600    308.95564   -8790.8659    519.21531   -7882.0937   -1074.0818 
 1965800    317.60202   -8772.4643    507.73769   -7864.2678    1957.0597 
 1966000    308.73834   -8808.8621    563.56124   -7856.0181    509.42005 
 1966200    295.44967   -8816.8248    572.56214   -7871.7353   -1414.7672 
 1966400    290.25088   -8762.6895     494.9084   -7901.8088    837.40091 
 1966600    289.62555   -8813.9298    544.89239   -7903.8535    130.09911 
 1966800    286.24148   -8788.2279    554.13946   -7873.1716   -861.67588 
 1967000    291.04107   -8785.1114    565.36071    -7852.782    981.03062 
 1967200    300.79945   -8777.5155    536.59174    -7861.651    678.39965 
 1967400     310.7509   -8806.4697    534.00353   -7880.6457   -61.221027 
 1967600    287.94193   -8795.3184    534.07354   -7898.1839    416.21127 
 1967800     300.2166   -8767.6478    484.79573   -7904.3141    1054.1793 
 1968000     299.1092   -8781.9784    528.87446   -7875.9623    -227.0301 
 1968200    315.63529   -8782.9307    534.65752   -7850.2941    1728.9443 
 1968400    312.71117   -8786.4995    538.17414   -7854.0332    226.35773 
 1968600    280.62405   -8801.5782    566.46982   -7881.2744   -668.00522 
 1968800    295.91395   -8777.9718    507.13603    -7897.723    1489.3127 
 1969000    279.44838   -8795.6282    553.57083   -7889.7058    188.15901 
 1969200    291.05591   -8774.0248    558.60831   -7848.4292   -536.61157 
 1969400    315.58713   -8768.9694    543.51555   -7827.5355     790.9377 
 1969600    293.35665   -8761.0861    537.02388   -7854.1739    908.62398 
 1969800    293.11753    -8771.504    522.63399   -7879.2832    338.31462 
 1970000    296.03376   -8779.8976    513.43251   -7893.2013    848.59317 
 1970200     296.6911   -8766.2782    502.26395   -7889.9216     1060.603 
 1970400    305.64998   -8796.4434    561.08423   -7849.9704    186.90612 
 1970600    318.48701   -8746.9417     507.0265   -7838.3404    1495.0949 
 1970800    296.58786   -8787.7458    555.44203   -7858.3413   -36.022961 
 1971000    301.19581   -8774.5377    519.41355   -7875.3516    647.30628 
 1971200    298.59984   -8791.6674    530.94974   -7884.2183    388.94276 
 1971400    289.95059   -8773.1331     527.0694     -7880.47     437.4023 
 1971600    301.49071   -8785.6333    531.22545   -7874.2634    806.22658 
 1971800    306.92777   -8787.9039    530.70587   -7870.1982    802.03309 
 1972000    308.21518   -8767.0665    506.90445   -7871.5388    1493.6588 
 1972200    307.55102    -8812.576    549.60033   -7875.1899   -54.360577 
 1972400    283.15856   -8773.9241     537.5948   -7879.2996    313.93958 
 1972600    296.15111   -8782.7655    526.12015   -7883.2335    167.74738 
 1972800    304.23312   -8780.2006    522.12106   -7874.4773    119.46504 
 1973000    279.51173   -8767.6094    549.36738   -7865.8106    180.28842 
 1973200    307.48226   -8794.1382    538.00913     -7868.43    915.56364 
 1973400    293.75413    -8805.131    551.70574   -7883.0358   -654.87808 
 1973600    292.56088   -8783.7858     525.8145   -7889.0864   -342.48402 
 1973800    303.72112    -8793.999    525.59077   -7885.4515    254.17682 
 1974000     288.2382   -8768.7712    527.97036   -7877.3663    454.07859 
 1974200    305.41987   -8791.5269    549.30247   -7857.1258   -306.02562 
 1974400    324.72129   -8785.5675    537.49455   -7838.6375   -174.46462 
 1974600    292.17244   -8794.4794    567.49823   -7858.5861     495.2044 
 1974800    292.48834   -8798.0542    535.17187   -7894.0889   -313.67718 
 1975000    301.06547   -8775.7256    501.64299   -7894.4744    1059.1967 
 1975200    297.98725   -8808.8253     552.0264   -7881.0719   -1094.0832 
 1975400    297.70974   -8760.5879    526.87416   -7858.3367    91.349017 
 1975600    316.79833   -8768.9876    535.50019   -7834.0419    648.87145 
 1975800    312.33085   -8772.7045    573.52347   -7805.3685   -62.044719 
 1976000    327.38677   -8779.6535    541.78788   -7825.0693    883.88745 
 1976200    310.46528   -8769.8013    516.20817   -7862.1329    421.67267 
 1976400    288.04849   -8745.8721    498.92687   -7883.7499    796.52174 
 1976600    296.19282   -8778.7647    511.82619   -7893.4741    1105.7371 
 1976800    307.40339   -8803.7558    530.21217    -7885.944   -846.77002 
 1977000    304.71681   -8794.1184     560.5976   -7849.3086   -218.24805 
 1977200    306.60779   -8763.1024     533.4772   -7843.0287    890.88156 
 1977400    301.84935   -8780.9126    539.22591   -7861.0901     507.5911 
 1977600    304.77975    -8776.687    513.34298   -7879.0525    763.09414 
 1977800    304.76776   -8760.7955    494.68439   -7881.8347    554.22811 
 1978000    286.50577   -8781.8222    541.38558   -7879.1865    1004.7614 
 1978200    289.68944   -8789.9765    566.00323   -7858.7089   -341.24584 
 1978400    311.15917   -8797.3914    577.26584   -7827.7903    -75.71357 
 1978600    323.98818    -8782.649    528.13026   -7846.0077   -238.53494 
 1978800    288.23748   -8775.9745    537.54311   -7874.9978   -747.06839 
 1979000    303.73284    -8808.741    548.94968   -7876.8199   -118.52686 
 1979200    295.89353   -8797.2372     547.6905   -7876.4597    -224.9261 
 1979400    292.41207   -8786.1283    543.35043   -7874.0805    174.20506 
 1979600    311.95297   -8800.4251    543.29834   -7863.7907   -46.284711 
 1979800    309.97081    -8782.086    528.30241   -7862.9467    537.95604 
 1980000    300.53768   -8785.1212    516.97721   -7889.2012   -222.61125 
 1980200     289.8895   -8807.9655    543.46589    -7898.983    -602.3314 
 1980400    287.28367   -8791.4263    553.43522   -7875.7601   -493.13134 
 1980600    308.83594   -8786.8613    556.52006   -7840.9353     338.0489 
 1980800    305.57654   -8782.4421    548.80928   -7848.3367    788.62376 
 1981000    297.63649   -8771.1248    526.06607   -7869.7741    -249.5434 
 1981200    303.62115   -8794.5824    530.10138   -7881.6504   -93.701283 
 1981400    297.04371   -8780.5507    525.80484   -7880.2086    50.005814 
 1981600    316.83041   -8785.7376    524.36024   -7861.8914    267.11603 
 1981800    311.64868    -8768.404    537.80978   -7837.6418    876.40984 
 1982000     307.2425   -8788.0172    546.64752   -7853.9729    623.78753 
 1982200    304.21017   -8785.8492    518.11384    -7884.162    7.9386908 
 1982400    302.30464   -8786.1217    512.79738   -7892.1536   -34.535412 
 1982600    288.64624   -8792.3682    538.97602   -7889.4432   -309.03064 
 1982800    307.70077    -8780.414    526.90645    -7865.533   -820.84088 
 1983000    327.32426   -8809.9619    571.12831   -7826.1161   -1147.6168 
 1983200    324.74493   -8778.4619    527.29804   -7841.6986    1846.5472 
 1983400    294.62437   -8796.6834    549.10208   -7876.0945    239.51761 
 1983600    284.92699   -8779.0172     530.0942   -7889.6635   -278.24416 
 1983800    298.74218   -8778.2897    508.75362   -7892.8572   -137.55708 
 1984000    278.69747   -8792.2461    562.50711   -7878.3342   -303.76713 
 1984200    324.61055   -8791.9054    540.69873   -7841.9108    96.068779 
 1984400    303.73818   -8774.3398    547.19729   -7844.1643   -105.63472 
 1984600    301.77347   -8780.5424    535.28525   -7864.7562    251.03224 
 1984800    315.93992   -8782.7437    503.44877   -7880.9318    1233.3562 
 1985000    307.35596   -8788.8912    514.68432   -7886.6671    483.56214 
 1985200    287.63433   -8789.9177    547.17313   -7880.0714    -544.1796 
 1985400    310.74275   -8787.5077    530.56657    -7865.131    243.02533 
 1985600    302.24344   -8773.6412    532.49438   -7860.0533    352.45873 
 1985800    309.14383    -8788.858    525.51884    -7873.545    287.24308 
 1986000    291.23185   -8788.7726    520.28966   -7901.2738   -619.54297 
 1986200    287.17989   -8777.1344     513.5889   -7901.4453    141.84584 
 1986400    313.32544   -8794.2504     528.9721   -7870.2117    148.23377 
 1986600    299.03184   -8787.4414    556.00654   -7854.3908   -47.761434 
 1986800    306.08608   -8779.9133    533.41551   -7860.5591   -175.25433 
 1987000    294.30429   -8778.8391     534.8509    -7872.905    607.69992 
 1987200    305.67983   -8780.0481     515.9084   -7878.7133    940.22466 
 1987400    292.32333   -8780.6555    530.55875   -7881.5113   -31.764912 
 1987600    290.38378   -8756.4993    509.21698   -7881.1424    596.48805 
 1987800    293.30941   -8798.4163    551.73414   -7876.8535    515.25074 
 1988000    313.23022   -8809.0187    544.93765   -7869.1345   -682.13248 
 1988200    312.28517   -8788.7743    537.67635    -7857.343   -437.51009 
 1988400    311.84192   -8775.5544    531.04254   -7851.3158    408.12333 
 1988600    307.59546   -8799.3822    539.87686   -7871.6636    940.89221 
 1988800    293.77834   -8795.4241     527.8875   -7897.1166    231.01426 
 1989000    286.30795   -8788.1377    528.22161   -7898.9153   -2300.9747 
 1989200    306.26873    -8789.527    537.95121   -7865.4069    990.47146 
 1989400    309.44083   -8805.3794    570.18471   -7845.0261   -64.802687 
 1989600    309.19663   -8801.7187     554.6542   -7857.2038   -1434.0258 
 1989800    303.85678   -8775.2909    515.35878   -7876.8044    101.41531 
 1990000    292.18969   -8791.9649    529.61481   -7893.9331    941.07655 
 1990200    286.18186   -8790.0456    536.90733   -7892.2966    251.78985 
 1990400    316.18953    -8770.914    527.95414   -7844.2819   -364.04883 
 1990600    315.98639   -8783.9522    552.30714   -7833.2233    653.30374 
 1990800    308.47059   -8806.2704     555.4883   -7861.8368   -1101.3576 
 1991000    284.62712   -8818.0886    571.80446   -7887.4027   -640.96583 
 1991200    272.82312   -8773.6353    540.57165   -7889.0657    427.84167 
 1991400    295.48114   -8787.8912    539.23999   -7876.0841   -971.29254 
 1991600    313.01608   -8787.1082    552.87083   -7839.5609   -51.220789 
 1991800    333.02311   -8759.2332    506.24068   -7833.0894    2008.0045 
 1992000    303.43974   -8796.8859    553.80164   -7860.4824   -505.67842 
 1992200    305.76335   -8768.0363    509.14474   -7873.3598    1343.6006 
 1992400    294.63073    -8784.444    531.90543   -7881.0438    958.55229 
 1992600    292.28664   -8775.5312    526.71846   -7880.2736    91.122197 
 1992800    317.34196   -8799.4617     535.7199   -7863.6108   -103.21332 
 1993000    303.46186    -8744.189    524.69572   -7836.8635    1216.5181 
 1993200    314.83805   -8773.5419     531.9725   -7844.5955    1907.8283 
 1993400    310.65511   -8800.7848    525.36935   -7883.7158   -238.46489 
 1993600    280.67119   -8770.8779    526.29106   -7890.6934    296.49315 
 1993800    298.35218   -8795.4741    541.85346   -7877.4335   -67.387498 
 1994000    304.99848   -8772.2535       532.31   -7855.3762     930.6013 
 1994200    321.28833   -8788.2972    527.83166   -7855.3587    49.184962 
 1994400    292.68487   -8799.0273    530.47525   -7899.5108   -383.82533 
 1994600    270.92546   -8811.9534    559.38798   -7910.9602   -535.16744 
 1994800    304.75863   -8801.0579    534.84969   -7881.9434   -124.52925 
 1995000    313.12635   -8769.1551    510.38012   -7863.9594    267.70107 
 1995200    299.82252   -8793.6743    556.73701   -7858.8963    268.74752 
 1995400     291.8243   -8791.8157    546.18667   -7877.6729    704.90733 
 1995600    291.04594   -8794.2757    518.73561   -7908.5653    410.27699 
 1995800    290.18881   -8795.2971    526.26359   -7903.1395   -268.71819 
 1996000    294.63546   -8777.4371    529.47475   -7876.4616    1614.7169 
 1996200    312.61309   -8783.6808    516.04603   -7873.4664    304.93959 
 1996400    295.30575   -8766.6209    526.42435   -7867.8507    97.369062 
 1996600    294.59512   -8771.1288     538.1831   -7861.4958    426.22292 
 1996800    315.25642   -8780.0784    519.69267   -7862.8844    314.74469 
 1997000    297.14814    -8765.356     504.2375   -7886.4495    2202.2962 
 1997200    279.14177   -8785.1809    524.26656   -7908.9494    498.02094 
 1997400    286.88248   -8773.3793    520.46435   -7891.1898   -142.84474 
 1997600    305.40615   -8781.0607    532.94105   -7863.0383    1398.1258 
 1997800    291.15334   -8778.3664    547.28393   -7863.9723    447.58885 
 1998000    322.09605    -8808.443    532.15415   -7870.1635     386.5842 
 1998200    291.26281   -8762.6691    515.58862   -7879.8322    796.74639 
 1998400    285.74927    -8779.053     524.7275   -7894.0292    417.87113 
 1998600    275.26008   -8785.7549    534.49287   -7904.1914     411.3211 
 1998800    289.86343   -8795.6543    543.60961   -7886.5609    329.68372 
 1999000    318.98625   -8770.0009     514.8675   -7852.9291     661.4367 
 1999200    300.07176   -8782.8611    546.91678   -7857.5891    360.37033 
 1999400    291.29837   -8792.1063    547.34693   -7877.4664    360.79218 
 1999600    282.44946   -8776.0333    529.60371    -7890.294    362.52755 
 1999800    282.22085   -8789.4776    548.56979   -7885.0604   -673.60925 
 2000000    297.76669   -8747.3918     523.9729     -7847.97    1441.8682 
Loop time of 6753.9 on 1 procs for 2000000 steps with 424 atoms

Performance: 12.793 ns/day, 1.876 hours/ns, 296.125 timesteps/s
99.8% CPU use with 1 MPI tasks x no OpenMP threads

MPI task timing breakdown:
Section |  min time  |  avg time  |  max time  |%varavg| %total
---------------------------------------------------------------
Pair    | 1760.6     | 1760.6     | 1760.6     |   0.0 | 26.07
Bond    | 219.77     | 219.77     | 219.77     |   0.0 |  3.25
Kspace  | 4662.6     | 4662.6     | 4662.6     |   0.0 | 69.04
Neigh   | 22.482     | 22.482     | 22.482     |   0.0 |  0.33
Comm    | 26.675     | 26.675     | 26.675     |  -nan |  0.39
Output  | 0.25898    | 0.25898    | 0.25898    |   0.0 |  0.00
Modify  | 52.522     | 52.522     | 52.522     |  -nan |  0.78
Other   |            | 9.06       |            |       |  0.13

Nlocal:    424 ave 424 max 424 min
Histogram: 1 0 0 0 0 0 0 0 0 0
Nghost:    3232 ave 3232 max 3232 min
Histogram: 1 0 0 0 0 0 0 0 0 0
Neighs:    55042 ave 55042 max 55042 min
Histogram: 1 0 0 0 0 0 0 0 0 0

Total # of neighbors = 55042
Ave neighs/atom = 129.816
Ave special neighs/atom = 4.5283
Neighbor list builds = 11406
Dangerous builds = 0
#Note that running for 1,000,000 times the printout frequency, as I do here, gets you wavenumbers at 1,000,000 increments between 0 and the maximum wavenumber.
##If you only use the autocorrelation function up to 0.01 times the trajectory length for statistical purposes, then you only get 10,000 increments.
##e.g., you get the intensity calculated at every 16,678/9,999 = 1.668 cm^-1.
##Running for longer increases this precision, and also it betters the statistics of the spectra.
Total wall time: 3:38:46
